/*--------------------------------*- C++ -*----------------------------------*\
  =========                 |
  \\      /  F ield         | OpenFOAM: The Open Source CFD Toolbox
   \\    /   O peration     | Website:  https://openfoam.org
    \\  /    A nd           | Version:  dev
     \\/     M anipulation  |
\*---------------------------------------------------------------------------*/
FoamFile
{
    version     2.0;
    format      ascii;
    class       volScalarField;
    location    "175";
    object      nut;
}
// * * * * * * * * * * * * * * * * * * * * * * * * * * * * * * * * * * * * * //

dimensions      [0 2 -1 0 0 0 0];

internalField   nonuniform List<scalar> 
29380
(
9.1327e-06
9.13534e-06
9.13268e-06
9.13342e-06
9.13153e-06
9.12882e-06
9.13026e-06
9.13003e-06
9.128e-06
9.13233e-06
9.13007e-06
9.12831e-06
9.12434e-06
9.13124e-06
9.12307e-06
9.13308e-06
9.12756e-06
9.12154e-06
9.12875e-06
9.12141e-06
9.12697e-06
9.13559e-06
9.12734e-06
9.12126e-06
9.12633e-06
9.12062e-06
9.12606e-06
9.12145e-06
9.13311e-06
9.12649e-06
9.12346e-06
9.12529e-06
9.12079e-06
9.12471e-06
9.12189e-06
9.12324e-06
9.12531e-06
9.1242e-06
9.12619e-06
9.12584e-06
9.12206e-06
9.12355e-06
9.12241e-06
9.12214e-06
9.12308e-06
9.1178e-06
9.12092e-06
9.12694e-06
9.12701e-06
9.12401e-06
9.1231e-06
9.12288e-06
9.12152e-06
9.12378e-06
9.12223e-06
9.11848e-06
9.11826e-06
9.12463e-06
9.12715e-06
9.12549e-06
9.12362e-06
9.12358e-06
9.12173e-06
9.12305e-06
9.12278e-06
9.12295e-06
9.13065e-06
9.11792e-06
9.12069e-06
9.12519e-06
9.12512e-06
9.12468e-06
9.12447e-06
9.12286e-06
9.12214e-06
9.12336e-06
9.12303e-06
9.12339e-06
9.1488e-06
9.121e-06
9.11823e-06
9.12163e-06
9.12209e-06
9.12512e-06
9.12494e-06
9.1247e-06
9.12195e-06
9.12407e-06
9.12261e-06
9.12426e-06
9.12377e-06
9.16143e-06
9.12804e-06
9.12015e-06
9.11866e-06
9.11711e-06
9.12355e-06
9.1239e-06
9.12636e-06
9.12297e-06
9.12488e-06
9.12303e-06
9.12409e-06
9.12445e-06
9.12498e-06
9.1597e-06
9.13887e-06
9.12754e-06
9.11944e-06
9.11299e-06
9.1196e-06
9.1204e-06
9.12632e-06
9.12452e-06
9.12581e-06
9.12461e-06
9.12393e-06
9.12481e-06
9.1252e-06
9.12609e-06
9.14494e-06
9.15069e-06
9.13908e-06
9.12661e-06
9.11408e-06
9.1153e-06
9.11488e-06
9.12317e-06
9.12484e-06
9.12632e-06
9.12697e-06
9.12459e-06
9.12532e-06
9.12491e-06
9.12633e-06
9.12611e-06
9.12785e-06
9.15518e-06
9.1505e-06
9.14004e-06
9.12419e-06
9.11537e-06
9.11045e-06
9.11708e-06
9.12215e-06
9.12518e-06
9.12866e-06
9.12645e-06
9.12615e-06
9.12554e-06
9.12559e-06
9.12654e-06
9.12485e-06
9.1188e-06
9.13909e-06
9.15394e-06
9.15443e-06
9.14291e-06
9.12505e-06
9.11261e-06
9.11142e-06
9.11657e-06
9.1212e-06
9.12775e-06
9.12857e-06
9.12756e-06
9.12717e-06
9.12614e-06
9.12656e-06
9.12754e-06
9.12349e-06
9.11738e-06
9.09326e-06
9.13904e-06
9.15823e-06
9.16184e-06
9.14499e-06
9.1264e-06
9.11253e-06
9.11168e-06
9.11498e-06
9.12299e-06
9.12885e-06
9.12898e-06
9.1295e-06
9.12817e-06
9.12763e-06
9.12991e-06
9.12816e-06
9.12381e-06
9.11236e-06
9.02844e-06
9.09931e-06
9.13755e-06
9.16445e-06
9.16587e-06
9.15069e-06
9.12632e-06
9.1141e-06
9.11041e-06
9.11558e-06
9.12537e-06
9.12891e-06
9.13123e-06
9.13112e-06
9.1296e-06
9.13162e-06
9.13208e-06
9.12773e-06
9.12819e-06
9.09609e-06
8.98509e-06
9.04388e-06
9.08712e-06
9.13383e-06
9.16805e-06
9.17312e-06
9.15188e-06
9.12956e-06
9.11416e-06
9.11012e-06
9.11851e-06
9.12576e-06
9.13051e-06
9.13317e-06
9.1321e-06
9.1323e-06
9.13396e-06
9.13171e-06
9.13067e-06
9.13348e-06
9.08271e-06
9.02089e-06
9.00629e-06
9.02409e-06
9.0684e-06
9.13193e-06
9.17142e-06
9.17576e-06
9.15621e-06
9.13152e-06
9.11355e-06
9.11244e-06
9.11968e-06
9.1261e-06
9.13216e-06
9.13378e-06
9.13232e-06
9.134e-06
9.13376e-06
9.13141e-06
9.13765e-06
9.13673e-06
9.11036e-06
9.1718e-06
9.03669e-06
8.99244e-06
8.99657e-06
9.05755e-06
9.12627e-06
9.17381e-06
9.17935e-06
9.15981e-06
9.13097e-06
9.11425e-06
9.11414e-06
9.11893e-06
9.12701e-06
9.13288e-06
9.13193e-06
9.13301e-06
9.13404e-06
9.1311e-06
9.13694e-06
9.14459e-06
9.13867e-06
9.21484e-06
9.40289e-06
9.17072e-06
9.04592e-06
8.97502e-06
8.98058e-06
9.04247e-06
9.12555e-06
9.17419e-06
9.18345e-06
9.15947e-06
9.12983e-06
9.11566e-06
9.11316e-06
9.11922e-06
9.12837e-06
9.13087e-06
9.1318e-06
9.13336e-06
9.13092e-06
9.13329e-06
9.14655e-06
9.1465e-06
9.14583e-06
9.38494e-06
9.58607e-06
9.38519e-06
9.20917e-06
9.06079e-06
8.96637e-06
8.96329e-06
9.03703e-06
9.12123e-06
9.17728e-06
9.18373e-06
9.15756e-06
9.13031e-06
9.11541e-06
9.11333e-06
9.12131e-06
9.12848e-06
9.13062e-06
9.13255e-06
9.13152e-06
9.1299e-06
9.1418e-06
9.15311e-06
9.15114e-06
9.15452e-06
9.53186e-06
9.55177e-06
9.57067e-06
9.43455e-06
9.26422e-06
9.07418e-06
8.95969e-06
8.95537e-06
9.02917e-06
9.12237e-06
9.1793e-06
9.18343e-06
9.1576e-06
9.13135e-06
9.1158e-06
9.11561e-06
9.12463e-06
9.12901e-06
9.13192e-06
9.13305e-06
9.12922e-06
9.13431e-06
9.15198e-06
9.1577e-06
9.15735e-06
9.16544e-06
9.51512e-06
9.21921e-06
9.56549e-06
9.58991e-06
9.50713e-06
9.30399e-06
9.08929e-06
8.95571e-06
8.9481e-06
9.02849e-06
9.12728e-06
9.18324e-06
9.18501e-06
9.16024e-06
9.13194e-06
9.11725e-06
9.12096e-06
9.12654e-06
9.13105e-06
9.13476e-06
9.13194e-06
9.12897e-06
9.14441e-06
9.159e-06
9.16352e-06
9.16847e-06
9.1768e-06
9.24051e-06
8.70585e-06
9.26859e-06
9.51781e-06
9.62804e-06
9.55615e-06
9.34082e-06
9.09671e-06
8.95435e-06
8.94639e-06
9.0357e-06
9.13614e-06
9.1888e-06
9.1899e-06
9.16117e-06
9.13175e-06
9.12157e-06
9.12394e-06
9.12922e-06
9.13525e-06
9.13637e-06
9.12939e-06
9.13514e-06
9.15382e-06
9.1668e-06
9.17397e-06
9.18257e-06
9.18583e-06
8.76712e-06
8.2905e-06
8.75795e-06
9.16013e-06
9.47184e-06
9.65034e-06
9.59695e-06
9.3622e-06
9.10477e-06
8.95231e-06
8.95218e-06
9.04596e-06
9.14591e-06
9.19684e-06
9.19234e-06
9.15975e-06
9.13206e-06
9.12427e-06
9.12654e-06
9.13318e-06
9.13926e-06
9.13524e-06
9.13033e-06
9.1442e-06
9.16417e-06
9.17637e-06
9.18894e-06
9.19144e-06
9.19887e-06
8.31367e-06
8.25155e-06
8.28855e-06
8.6487e-06
9.02902e-06
9.43695e-06
9.66514e-06
9.62439e-06
9.37856e-06
9.10286e-06
8.95085e-06
8.95618e-06
9.05549e-06
9.15665e-06
9.20288e-06
9.19202e-06
9.15583e-06
9.13284e-06
9.12547e-06
9.1286e-06
9.13773e-06
9.14217e-06
9.13313e-06
9.13581e-06
9.15498e-06
9.17359e-06
9.18985e-06
9.202e-06
9.19896e-06
9.21619e-06
8.14402e-06
8.70732e-06
8.15474e-06
8.25677e-06
8.49607e-06
8.94233e-06
9.40449e-06
9.68104e-06
9.64232e-06
9.3779e-06
9.09044e-06
8.94089e-06
8.95673e-06
9.06463e-06
9.16722e-06
9.20721e-06
9.18776e-06
9.15419e-06
9.13155e-06
9.12456e-06
9.13137e-06
9.1444e-06
9.14114e-06
9.13402e-06
9.14369e-06
9.16447e-06
9.18544e-06
9.20598e-06
9.21142e-06
9.21212e-06
9.23583e-06
8.42781e-06
9.50289e-06
8.53096e-06
8.24606e-06
8.1776e-06
8.40362e-06
8.87163e-06
9.39292e-06
9.69091e-06
9.64555e-06
9.35851e-06
9.06563e-06
8.92447e-06
8.95578e-06
9.07622e-06
9.17805e-06
9.20897e-06
9.1857e-06
9.15085e-06
9.12775e-06
9.12405e-06
9.13883e-06
9.14767e-06
9.13981e-06
9.13714e-06
9.15226e-06
9.1753e-06
9.20334e-06
9.22008e-06
9.22762e-06
9.22964e-06
9.2601e-06
9.13869e-06
1.01884e-05
9.34814e-06
8.72282e-06
8.31575e-06
8.13921e-06
8.33331e-06
8.8331e-06
9.38838e-06
9.70114e-06
9.63347e-06
9.33062e-06
9.03317e-06
8.90519e-06
8.95943e-06
9.09003e-06
9.1898e-06
9.21065e-06
9.18315e-06
9.14591e-06
9.12411e-06
9.12854e-06
9.14649e-06
9.14834e-06
9.13954e-06
9.14318e-06
9.16207e-06
9.19314e-06
9.22291e-06
9.23988e-06
9.25166e-06
9.25013e-06
9.29335e-06
9.99563e-06
1.02662e-05
1.02166e-05
9.53439e-06
8.95373e-06
8.37218e-06
8.11523e-06
8.28781e-06
8.81599e-06
9.40545e-06
9.71414e-06
9.62589e-06
9.29855e-06
8.99604e-06
8.89081e-06
8.96628e-06
9.10794e-06
9.19869e-06
9.21341e-06
9.18066e-06
9.14111e-06
9.12337e-06
9.13741e-06
9.15207e-06
9.14863e-06
9.14245e-06
9.15073e-06
9.17756e-06
9.21589e-06
9.24497e-06
9.26806e-06
9.27991e-06
9.27873e-06
9.33828e-06
1.05398e-05
9.63637e-06
1.0564e-05
1.02469e-05
9.83796e-06
9.09992e-06
8.42374e-06
8.09122e-06
8.26721e-06
8.83378e-06
9.44894e-06
9.74809e-06
9.62388e-06
9.26069e-06
8.96135e-06
8.87909e-06
8.97771e-06
9.12246e-06
9.20999e-06
9.21782e-06
9.178e-06
9.13579e-06
9.12902e-06
9.14712e-06
9.15662e-06
9.15001e-06
9.14649e-06
9.16147e-06
9.19902e-06
9.23751e-06
9.27261e-06
9.30234e-06
9.31497e-06
9.31636e-06
9.39601e-06
1.04303e-05
8.72543e-06
1.00833e-05
1.03694e-05
1.04448e-05
1.00042e-05
9.21879e-06
8.44395e-06
8.07831e-06
8.27595e-06
8.89003e-06
9.52203e-06
9.80092e-06
9.61828e-06
9.22009e-06
8.9274e-06
8.86915e-06
8.98892e-06
9.14006e-06
9.22392e-06
9.22111e-06
9.17189e-06
9.13552e-06
9.1386e-06
9.15647e-06
9.15963e-06
9.15115e-06
9.15116e-06
9.17711e-06
9.21788e-06
9.2602e-06
9.30757e-06
9.34237e-06
9.35635e-06
9.36141e-06
9.46653e-06
9.72672e-06
8.11688e-06
9.0555e-06
9.77136e-06
1.03123e-05
1.05224e-05
1.01297e-05
9.28591e-06
8.44766e-06
8.07048e-06
8.31254e-06
8.96829e-06
9.62198e-06
9.85795e-06
9.60392e-06
9.17754e-06
8.89071e-06
8.86413e-06
9.00287e-06
9.16048e-06
9.23579e-06
9.22003e-06
9.16704e-06
9.14015e-06
9.14942e-06
9.16351e-06
9.16092e-06
9.15089e-06
9.15873e-06
9.19228e-06
9.23432e-06
9.28939e-06
9.34758e-06
9.38725e-06
9.40255e-06
9.41953e-06
9.55025e-06
8.83179e-06
8.15236e-06
8.11222e-06
8.83117e-06
9.47276e-06
1.02411e-05
1.05666e-05
1.02126e-05
9.30899e-06
8.42299e-06
8.0602e-06
8.34963e-06
9.0663e-06
9.73723e-06
9.90375e-06
9.58525e-06
9.12849e-06
8.86167e-06
8.86026e-06
9.0191e-06
9.17943e-06
9.245e-06
9.21644e-06
9.1653e-06
9.1476e-06
9.15992e-06
9.16865e-06
9.15965e-06
9.15186e-06
9.17061e-06
9.20459e-06
9.25426e-06
9.32274e-06
9.39177e-06
9.43826e-06
9.46209e-06
9.49927e-06
9.64031e-06
8.17751e-06
8.7919e-06
7.75736e-06
8.11433e-06
8.453e-06
9.30041e-06
1.01632e-05
1.06099e-05
1.02462e-05
9.27818e-06
8.35958e-06
8.02632e-06
8.38359e-06
9.18572e-06
9.84644e-06
9.94502e-06
9.55966e-06
9.08315e-06
8.83078e-06
8.85735e-06
9.03683e-06
9.19947e-06
9.25046e-06
9.21261e-06
9.16701e-06
9.15812e-06
9.17033e-06
9.17123e-06
9.15856e-06
9.16147e-06
9.1823e-06
9.21655e-06
9.27699e-06
9.36014e-06
9.44451e-06
9.5036e-06
9.54231e-06
9.59718e-06
9.7386e-06
7.99736e-06
9.60873e-06
8.14478e-06
7.98904e-06
7.84024e-06
8.28719e-06
9.1489e-06
1.01326e-05
1.06341e-05
1.02295e-05
9.18685e-06
8.25822e-06
7.96159e-06
8.43305e-06
9.31079e-06
9.95423e-06
9.98396e-06
9.52664e-06
9.0319e-06
8.79871e-06
8.85984e-06
9.0596e-06
9.21819e-06
9.2532e-06
9.21173e-06
9.17413e-06
9.1716e-06
9.17963e-06
9.17332e-06
9.1669e-06
9.17505e-06
9.19115e-06
9.22996e-06
9.30418e-06
9.40757e-06
9.5108e-06
9.58611e-06
9.64185e-06
9.71596e-06
9.87079e-06
8.29807e-06
1.00056e-05
9.05168e-06
8.48746e-06
7.94178e-06
7.76518e-06
8.15514e-06
9.06392e-06
1.01306e-05
1.06467e-05
1.01661e-05
9.06224e-06
8.10881e-06
7.89574e-06
8.4998e-06
9.43932e-06
1.00681e-05
1.00041e-05
9.48421e-06
8.9764e-06
8.77333e-06
8.86899e-06
9.0858e-06
9.23448e-06
9.25756e-06
9.21579e-06
9.18669e-06
9.18654e-06
9.18795e-06
9.18115e-06
9.18267e-06
9.18637e-06
9.20104e-06
9.24905e-06
9.34079e-06
9.46591e-06
9.58909e-06
9.68588e-06
9.75989e-06
9.88083e-06
1.00496e-05
8.90869e-06
9.72062e-06
9.92226e-06
9.30124e-06
8.70776e-06
7.98461e-06
7.72379e-06
8.06892e-06
9.03687e-06
1.01653e-05
1.06617e-05
1.00957e-05
8.89782e-06
7.9374e-06
7.85287e-06
8.57406e-06
9.58078e-06
1.01637e-05
1.00155e-05
9.43414e-06
8.92316e-06
8.75207e-06
8.88535e-06
9.11269e-06
9.25083e-06
9.2637e-06
9.22541e-06
9.20334e-06
9.20055e-06
9.19581e-06
9.19746e-06
9.20003e-06
9.19959e-06
9.21817e-06
9.27537e-06
9.38458e-06
9.53226e-06
9.68028e-06
9.7956e-06
9.90268e-06
1.0121e-05
1.02175e-05
9.55751e-06
9.07368e-06
1.01967e-05
9.90422e-06
9.71685e-06
8.83669e-06
8.05779e-06
7.68416e-06
8.03353e-06
9.06958e-06
1.02524e-05
1.07047e-05
1.00281e-05
8.69464e-06
7.78454e-06
7.82046e-06
8.66096e-06
9.72112e-06
1.02589e-05
1.00179e-05
9.37622e-06
8.86738e-06
8.73753e-06
8.90617e-06
9.13838e-06
9.26498e-06
9.27281e-06
9.24047e-06
9.22003e-06
9.209e-06
9.21022e-06
9.22066e-06
9.22065e-06
9.22044e-06
9.24019e-06
9.30552e-06
9.43522e-06
9.60766e-06
9.77156e-06
9.90121e-06
1.00921e-05
1.04122e-05
1.3901e-05
9.97269e-06
8.62326e-06
9.79465e-06
9.92183e-06
1.03286e-05
9.85037e-06
8.99216e-06
8.08901e-06
7.66043e-06
8.04547e-06
9.16786e-06
1.0386e-05
1.08109e-05
9.92511e-06
8.4906e-06
7.64396e-06
7.79425e-06
8.77e-06
9.8744e-06
1.03495e-05
1.00029e-05
9.30764e-06
8.81224e-06
8.72881e-06
8.92515e-06
9.15947e-06
9.27809e-06
9.28641e-06
9.25724e-06
9.23002e-06
9.21949e-06
9.23516e-06
9.24809e-06
9.24648e-06
9.24485e-06
9.2645e-06
9.34371e-06
9.49392e-06
9.67798e-06
9.83765e-06
1.00141e-05
1.03457e-05
9.93375e-06
0.000361882
1.00004e-05
8.69157e-06
9.14305e-06
9.44818e-06
1.01554e-05
1.03896e-05
9.9988e-06
9.08435e-06
8.09209e-06
7.6491e-06
8.0962e-06
9.30135e-06
1.06128e-05
1.09187e-05
9.79122e-06
8.29494e-06
7.50135e-06
7.80369e-06
8.90106e-06
1.00335e-05
1.04243e-05
9.97355e-06
9.22972e-06
8.76003e-06
8.71867e-06
8.94035e-06
9.17661e-06
9.29296e-06
9.30332e-06
9.27049e-06
9.23627e-06
9.23975e-06
9.26475e-06
9.27565e-06
9.27569e-06
9.27261e-06
9.29845e-06
9.39204e-06
9.55084e-06
9.72118e-06
9.8836e-06
1.01748e-05
1.06694e-05
1.45585e-05
0.00191711
9.65604e-06
9.19552e-06
8.73084e-06
8.90924e-06
9.40127e-06
1.0138e-05
1.04379e-05
1.00998e-05
9.11744e-06
8.06811e-06
7.63254e-06
8.15262e-06
9.49652e-06
1.08917e-05
1.09803e-05
9.6515e-06
8.08863e-06
7.39021e-06
7.83359e-06
9.04801e-06
1.01941e-05
1.04929e-05
9.92699e-06
9.14793e-06
8.70831e-06
8.70891e-06
8.95193e-06
9.19281e-06
9.31183e-06
9.32207e-06
9.27497e-06
9.24616e-06
9.26511e-06
9.28972e-06
9.30653e-06
9.31143e-06
9.31012e-06
9.34558e-06
9.44896e-06
9.59724e-06
9.74227e-06
9.95755e-06
1.03165e-05
2.01532e-05
0.000921531
0.00368939
9.09813e-06
9.68331e-06
8.75635e-06
8.67088e-06
8.62058e-06
9.35941e-06
1.00674e-05
1.04824e-05
1.01451e-05
9.09818e-06
8.00165e-06
7.59435e-06
8.20053e-06
9.7627e-06
1.11447e-05
1.10186e-05
9.49544e-06
7.88906e-06
7.28895e-06
7.8832e-06
9.21732e-06
1.03672e-05
1.05485e-05
9.86938e-06
9.06944e-06
8.66297e-06
8.69933e-06
8.96184e-06
9.21287e-06
9.33717e-06
9.3303e-06
9.27339e-06
9.26168e-06
9.2857e-06
9.31681e-06
9.34717e-06
9.35512e-06
9.36184e-06
9.41312e-06
9.51931e-06
9.6394e-06
9.78342e-06
1.00775e-05
9.75168e-06
0.000513668
0.00292062
0.00493856
8.58928e-06
9.69176e-06
9.06095e-06
8.8169e-06
8.25523e-06
8.59941e-06
9.23055e-06
1.00317e-05
1.05083e-05
1.01427e-05
9.02659e-06
7.9011e-06
7.48451e-06
8.29299e-06
1.00428e-05
1.1368e-05
1.10486e-05
9.30581e-06
7.68144e-06
7.20495e-06
7.96271e-06
9.41337e-06
1.05481e-05
1.05934e-05
9.81679e-06
9.00197e-06
8.62316e-06
8.68974e-06
8.97547e-06
9.24181e-06
9.35573e-06
9.32346e-06
9.27636e-06
9.27883e-06
9.30589e-06
9.35407e-06
9.39339e-06
9.41048e-06
9.44064e-06
9.51158e-06
9.60596e-06
9.70154e-06
9.86886e-06
1.00515e-05
0.000191578
0.00233345
0.00442449
0.00583555
8.32717e-06
9.18772e-06
9.30231e-06
9.14574e-06
8.42626e-06
8.25502e-06
8.48902e-06
9.14608e-06
1.00205e-05
1.05176e-05
1.01147e-05
8.92974e-06
7.70373e-06
7.37057e-06
8.42767e-06
1.03028e-05
1.16054e-05
1.10204e-05
9.08459e-06
7.48171e-06
7.14188e-06
8.06503e-06
9.64039e-06
1.0732e-05
1.06427e-05
9.77396e-06
8.94334e-06
8.5858e-06
8.68423e-06
8.99875e-06
9.27356e-06
9.35639e-06
9.31602e-06
9.29082e-06
9.2935e-06
9.33188e-06
9.39592e-06
9.44659e-06
9.4906e-06
9.55313e-06
9.63412e-06
9.71174e-06
9.80748e-06
9.78969e-06
4.50482e-05
0.00164081
0.00404148
0.00551242
0.00644239
8.48692e-06
8.57064e-06
9.24647e-06
9.35487e-06
8.94455e-06
8.41357e-06
8.20825e-06
8.40717e-06
9.10781e-06
1.00263e-05
1.05429e-05
1.00888e-05
8.76905e-06
7.4531e-06
7.30481e-06
8.5623e-06
1.05905e-05
1.181e-05
1.0949e-05
8.85008e-06
7.28198e-06
7.08332e-06
8.20296e-06
9.88821e-06
1.09181e-05
1.06924e-05
9.73751e-06
8.88792e-06
8.55251e-06
8.6887e-06
9.03758e-06
9.29492e-06
9.34718e-06
9.32607e-06
9.30401e-06
9.30555e-06
9.36332e-06
9.44156e-06
9.51461e-06
9.5937e-06
9.68116e-06
9.76733e-06
9.85497e-06
9.90214e-06
1.31311e-05
0.00100056
0.00357194
0.00525438
0.00627156
0.00681012
8.95816e-06
8.36739e-06
8.97964e-06
9.28797e-06
9.4577e-06
8.89018e-06
8.43934e-06
8.16716e-06
8.3663e-06
9.10464e-06
1.00686e-05
1.0596e-05
1.00879e-05
8.5261e-06
7.23295e-06
7.26479e-06
8.7162e-06
1.09008e-05
1.19953e-05
1.08388e-05
8.58619e-06
7.06483e-06
7.04381e-06
8.36652e-06
1.01355e-05
1.10922e-05
1.07399e-05
9.70141e-06
8.83402e-06
8.52872e-06
8.71897e-06
9.08331e-06
9.29801e-06
9.35058e-06
9.34127e-06
9.30641e-06
9.32351e-06
9.39974e-06
9.49048e-06
9.59011e-06
9.69675e-06
9.80515e-06
9.92692e-06
1.00315e-05
9.80044e-06
0.000511232
0.00303497
0.00493157
0.00611574
0.00675962
0.00698307
9.46597e-06
8.6755e-06
8.82039e-06
9.05853e-06
9.65061e-06
9.37306e-06
8.96914e-06
8.45563e-06
8.14425e-06
8.36192e-06
9.12649e-06
1.01407e-05
1.07587e-05
1.00309e-05
8.2691e-06
7.06171e-06
7.22533e-06
8.92253e-06
1.12352e-05
1.2138e-05
1.06804e-05
8.28507e-06
6.83813e-06
7.01982e-06
8.52641e-06
1.03648e-05
1.12558e-05
1.07831e-05
9.66006e-06
8.78551e-06
8.5324e-06
8.77638e-06
9.11168e-06
9.29724e-06
9.36886e-06
9.34422e-06
9.31103e-06
9.35075e-06
9.43317e-06
9.53617e-06
9.65655e-06
9.78398e-06
9.94089e-06
1.01321e-05
9.79344e-06
0.000205005
0.00240616
0.00456746
0.00591449
0.00668503
0.00702662
0.007
9.83904e-06
9.28634e-06
8.93624e-06
8.93093e-06
9.50344e-06
9.59239e-06
9.4709e-06
9.0358e-06
8.46007e-06
8.14858e-06
8.3585e-06
9.15859e-06
1.03292e-05
1.0947e-05
9.91288e-06
8.06342e-06
6.87463e-06
7.22699e-06
9.1761e-06
1.15534e-05
1.22561e-05
1.04845e-05
7.93587e-06
6.61199e-06
6.99381e-06
8.67344e-06
1.05831e-05
1.14146e-05
1.08125e-05
9.61244e-06
8.75305e-06
8.57591e-06
8.83155e-06
9.11663e-06
9.31784e-06
9.38546e-06
9.34046e-06
9.32664e-06
9.37744e-06
9.4622e-06
9.57689e-06
9.70681e-06
9.86949e-06
1.01154e-05
1.0109e-05
4.81086e-05
0.0017175
0.00416203
0.00567609
0.00658263
0.00701518
0.00711597
0.00689458
9.73071e-06
9.83303e-06
9.27099e-06
9.01865e-06
9.2063e-06
9.52125e-06
9.66885e-06
9.56121e-06
9.06473e-06
8.47335e-06
8.13917e-06
8.34351e-06
9.23607e-06
1.06117e-05
1.10733e-05
9.81248e-06
7.83036e-06
6.69258e-06
7.26892e-06
9.44531e-06
1.1898e-05
1.23801e-05
1.02106e-05
7.56652e-06
6.39503e-06
6.9703e-06
8.81688e-06
1.0803e-05
1.15583e-05
1.0817e-05
9.55448e-06
8.75633e-06
8.64197e-06
8.85387e-06
9.13782e-06
9.35827e-06
9.38691e-06
9.3406e-06
9.35047e-06
9.40723e-06
9.49913e-06
9.61254e-06
9.74786e-06
9.98132e-06
1.02058e-05
1.38758e-05
0.00106551
0.00370772
0.00540186
0.00644789
0.00699073
0.00715291
0.0070652
0.00669593
9.25682e-06
9.84948e-06
9.587e-06
9.25243e-06
8.98882e-06
9.28841e-06
9.54545e-06
9.74227e-06
9.60427e-06
9.07435e-06
8.47741e-06
8.10978e-06
8.28627e-06
9.40621e-06
1.08803e-05
1.11616e-05
9.69041e-06
7.55258e-06
6.52951e-06
7.34612e-06
9.76416e-06
1.23064e-05
1.2461e-05
9.89306e-06
7.21739e-06
6.2019e-06
6.95354e-06
8.96778e-06
1.10191e-05
1.1664e-05
1.07757e-05
9.50546e-06
8.80405e-06
8.68436e-06
8.87238e-06
9.20049e-06
9.3876e-06
9.37659e-06
9.35677e-06
9.38995e-06
9.45762e-06
9.54567e-06
9.6385e-06
9.80428e-06
1.00916e-05
9.67723e-06
0.000557595
0.00317611
0.00509139
0.00628285
0.00693919
0.00718856
0.00713861
0.00690656
0.00642898
8.76334e-06
9.33466e-06
9.58089e-06
9.44602e-06
8.96974e-06
9.07791e-06
9.24301e-06
9.56811e-06
9.78637e-06
9.59513e-06
9.09075e-06
8.47157e-06
7.98734e-06
8.26395e-06
9.61222e-06
1.10725e-05
1.12625e-05
9.49098e-06
7.25991e-06
6.41246e-06
7.45504e-06
1.01545e-05
1.27715e-05
1.2512e-05
9.58796e-06
6.90612e-06
6.02566e-06
6.94444e-06
9.13049e-06
1.12074e-05
1.17017e-05
1.06962e-05
9.50431e-06
8.85443e-06
8.69394e-06
8.93683e-06
9.2775e-06
9.39222e-06
9.38092e-06
9.40136e-06
9.45726e-06
9.52746e-06
9.58655e-06
9.67301e-06
9.90049e-06
9.36862e-06
0.000231611
0.00254292
0.00474081
0.00608816
0.0068635
0.00720186
0.00721973
0.00700691
0.0066677
0.00611514
8.55173e-06
8.73418e-06
9.21141e-06
9.40092e-06
9.02554e-06
8.99742e-06
8.97152e-06
9.19824e-06
9.60217e-06
9.76333e-06
9.59944e-06
9.11763e-06
8.38452e-06
7.82789e-06
8.29642e-06
9.74773e-06
1.13125e-05
1.13258e-05
9.23657e-06
7.01052e-06
6.29825e-06
7.59295e-06
1.06674e-05
1.32707e-05
1.25562e-05
9.30411e-06
6.61309e-06
5.85426e-06
6.95429e-06
9.29649e-06
1.13457e-05
1.1658e-05
1.06364e-05
9.54002e-06
8.84779e-06
8.72342e-06
9.05447e-06
9.33759e-06
9.39774e-06
9.41951e-06
9.47606e-06
9.54652e-06
9.59713e-06
9.632e-06
9.75977e-06
9.56001e-06
5.54389e-05
0.00183514
0.00434378
0.00586382
0.00676366
0.00719686
0.00728237
0.00712169
0.00678734
0.0063723
0.00577278
8.71423e-06
8.46721e-06
8.76663e-06
9.12263e-06
9.11681e-06
8.96957e-06
8.878e-06
8.87063e-06
9.20647e-06
9.58977e-06
9.73715e-06
9.6259e-06
9.13195e-06
8.212e-06
7.70957e-06
8.3025e-06
9.93115e-06
1.1609e-05
1.1333e-05
8.99148e-06
6.73923e-06
6.1691e-06
7.83156e-06
1.12558e-05
1.37596e-05
1.25769e-05
9.01601e-06
6.3162e-06
5.70047e-06
6.99698e-06
9.46495e-06
1.14036e-05
1.15797e-05
1.06396e-05
9.5169e-06
8.80404e-06
8.83065e-06
9.19245e-06
9.37962e-06
9.42714e-06
9.48685e-06
9.57144e-06
9.64123e-06
9.66846e-06
9.72394e-06
9.73404e-06
1.30034e-05
0.00114817
0.00388595
0.00560579
0.00664084
0.00717285
0.00733172
0.00722107
0.00692635
0.00650516
0.00604077
0.00541793
9.10366e-06
8.66295e-06
8.57569e-06
8.83371e-06
9.13216e-06
9.00939e-06
8.88425e-06
8.76823e-06
8.8412e-06
9.22795e-06
9.54506e-06
9.72176e-06
9.71893e-06
9.07068e-06
8.04246e-06
7.62129e-06
8.32571e-06
1.02257e-05
1.19071e-05
1.12957e-05
8.71039e-06
6.4253e-06
6.07905e-06
8.12222e-06
1.18398e-05
1.41997e-05
1.25609e-05
8.70198e-06
6.02539e-06
5.59439e-06
7.08928e-06
9.60704e-06
1.13862e-05
1.15637e-05
1.06222e-05
9.38508e-06
8.81512e-06
9.00862e-06
9.30497e-06
9.4141e-06
9.47672e-06
9.57387e-06
9.67823e-06
9.73567e-06
9.77115e-06
9.8436e-06
8.50095e-06
0.000599604
0.00333847
0.00530504
0.00649364
0.00713128
0.00736657
0.00731119
0.00705241
0.00666091
0.00618208
0.0056909
0.00506493
9.43573e-06
9.13349e-06
8.7627e-06
8.75631e-06
9.09276e-06
9.04948e-06
9.01788e-06
8.80947e-06
8.70499e-06
8.89158e-06
9.207e-06
9.48426e-06
9.79828e-06
9.80684e-06
8.97359e-06
7.94461e-06
7.5125e-06
8.43396e-06
1.05813e-05
1.21329e-05
1.1245e-05
8.37735e-06
6.0807e-06
6.00114e-06
8.40984e-06
1.23919e-05
1.4609e-05
1.25095e-05
8.36021e-06
5.77954e-06
5.55756e-06
7.21896e-06
9.68677e-06
1.13994e-05
1.16061e-05
1.04498e-05
9.21876e-06
8.92332e-06
9.17981e-06
9.36861e-06
9.44698e-06
9.5446e-06
9.67828e-06
9.7853e-06
9.84579e-06
9.92571e-06
8.79819e-06
0.0002457
0.00267499
0.00495167
0.00631696
0.00707238
0.0073884
0.00739052
0.00717235
0.0068057
0.00634868
0.00583701
0.00533863
0.00472717
9.49462e-06
9.51669e-06
9.17884e-06
8.94442e-06
9.07959e-06
9.08552e-06
9.15294e-06
9.03292e-06
8.7253e-06
8.74674e-06
8.92092e-06
9.1522e-06
9.47439e-06
9.94179e-06
9.85209e-06
8.95164e-06
7.79737e-06
7.41524e-06
8.6141e-06
1.08812e-05
1.23962e-05
1.11799e-05
7.92815e-06
5.72288e-06
5.93153e-06
8.69821e-06
1.29558e-05
1.50302e-05
1.23972e-05
8.02042e-06
5.59802e-06
5.59316e-06
7.33747e-06
9.75774e-06
1.15518e-05
1.15344e-05
1.01024e-05
9.11633e-06
9.0688e-06
9.28197e-06
9.39931e-06
9.49258e-06
9.63395e-06
9.78683e-06
9.89804e-06
9.99939e-06
9.56042e-06
5.55657e-05
0.00192022
0.00453839
0.00610314
0.00699394
0.00739835
0.00746049
0.00728445
0.00694682
0.00650601
0.00600995
0.00548686
0.00499877
0.00441768
9.29211e-06
9.553e-06
9.5083e-06
9.25234e-06
9.13621e-06
9.13712e-06
9.22221e-06
9.25895e-06
8.97418e-06
8.7239e-06
8.81084e-06
8.92202e-06
9.07707e-06
9.55095e-06
1.00702e-05
9.93036e-06
8.87845e-06
7.57682e-06
7.36053e-06
8.77981e-06
1.12355e-05
1.27154e-05
1.09618e-05
7.43627e-06
5.39943e-06
5.89277e-06
9.02599e-06
1.35935e-05
1.54292e-05
1.21956e-05
7.69497e-06
5.49588e-06
5.66231e-06
7.42443e-06
9.98858e-06
1.17478e-05
1.11794e-05
9.70964e-06
9.10405e-06
9.18054e-06
9.33273e-06
9.43324e-06
9.56014e-06
9.73313e-06
9.89812e-06
1.00471e-05
1.00284e-05
1.21049e-05
0.00118025
0.00405229
0.00584331
0.00689065
0.00739624
0.0075227
0.00739001
0.00708239
0.00666158
0.00617508
0.00566281
0.00514728
0.00468562
0.00414961
9.02086e-06
9.28514e-06
9.5161e-06
9.44304e-06
9.22689e-06
9.202e-06
9.21615e-06
9.36115e-06
9.26939e-06
8.91006e-06
8.78817e-06
8.87497e-06
8.85197e-06
9.04219e-06
9.64478e-06
1.01709e-05
9.99609e-06
8.67819e-06
7.34568e-06
7.33579e-06
8.96644e-06
1.16666e-05
1.29806e-05
1.06901e-05
6.98713e-06
5.13382e-06
5.89571e-06
9.42961e-06
1.42973e-05
1.56966e-05
1.1888e-05
7.41349e-06
5.45043e-06
5.69264e-06
7.61292e-06
1.04553e-05
1.17274e-05
1.06175e-05
9.43772e-06
9.15834e-06
9.26576e-06
9.38209e-06
9.48749e-06
9.64279e-06
9.83627e-06
1.00415e-05
1.02095e-05
8.53966e-06
0.000595652
0.00346166
0.00552794
0.00675453
0.00737914
0.00757834
0.00749079
0.00721354
0.00681341
0.00633997
0.00583223
0.00532395
0.00483334
0.00441344
0.00393597
8.87326e-06
8.96862e-06
9.24188e-06
9.37982e-06
9.26938e-06
9.24856e-06
9.16595e-06
9.30088e-06
9.44844e-06
9.17451e-06
8.91981e-06
8.88556e-06
8.87408e-06
8.75337e-06
9.03368e-06
9.67173e-06
1.03118e-05
9.96688e-06
8.40514e-06
7.17824e-06
7.29106e-06
9.18524e-06
1.2188e-05
1.32532e-05
1.04281e-05
6.59388e-06
4.90677e-06
5.93365e-06
9.92978e-06
1.49526e-05
1.57714e-05
1.15028e-05
7.18219e-06
5.3627e-06
5.72823e-06
8.11612e-06
1.09917e-05
1.13975e-05
1.01267e-05
9.3599e-06
9.26358e-06
9.36079e-06
9.45227e-06
9.56113e-06
9.7312e-06
9.96388e-06
1.02292e-05
9.2009e-06
0.000231854
0.00273906
0.00514765
0.00657684
0.00734105
0.00762659
0.00758886
0.00734198
0.00696239
0.00650257
0.00600265
0.0054952
0.00500933
0.0045599
0.00419616
0.00378859
8.91172e-06
8.82862e-06
8.93094e-06
9.13486e-06
9.21309e-06
9.24094e-06
9.11652e-06
9.13978e-06
9.41856e-06
9.38803e-06
9.11305e-06
8.97658e-06
8.95854e-06
8.80683e-06
8.66783e-06
8.96667e-06
9.76532e-06
1.04657e-05
9.83901e-06
8.19711e-06
6.9714e-06
7.22845e-06
9.54476e-06
1.2783e-05
1.35028e-05
1.01596e-05
6.21451e-06
4.67986e-06
6.03015e-06
1.04908e-05
1.54969e-05
1.56358e-05
1.10902e-05
6.90435e-06
5.1818e-06
5.99944e-06
8.99645e-06
1.13365e-05
1.09635e-05
9.88495e-06
9.4272e-06
9.404e-06
9.48152e-06
9.54669e-06
9.64261e-06
9.83148e-06
1.01294e-05
9.90514e-06
4.82965e-05
0.00192478
0.00469594
0.00634929
0.0072742
0.00766371
0.00768507
0.00747024
0.00711004
0.0066635
0.00617194
0.00566846
0.00518086
0.00473457
0.00434144
0.00404633
0.00371595
9.0619e-06
8.91361e-06
8.80555e-06
8.90648e-06
9.08903e-06
9.17447e-06
9.09684e-06
8.99354e-06
9.21412e-06
9.44071e-06
9.29385e-06
9.08043e-06
9.06778e-06
8.96681e-06
8.7309e-06
8.56072e-06
8.94655e-06
9.96979e-06
1.05721e-05
9.7317e-06
7.95754e-06
6.72488e-06
7.26886e-06
9.96813e-06
1.335e-05
1.36781e-05
9.83907e-06
5.79217e-06
4.46997e-06
6.22e-06
1.10993e-05
1.5869e-05
1.53554e-05
1.06279e-05
6.42801e-06
5.07199e-06
6.73317e-06
1.00048e-05
1.13743e-05
1.0628e-05
9.82002e-06
9.54632e-06
9.5732e-06
9.63222e-06
9.65389e-06
9.72444e-06
9.95143e-06
1.01227e-05
1.15758e-05
0.00115287
0.00416167
0.0060641
0.00717034
0.00768347
0.00777783
0.00760037
0.007259
0.00682398
0.00634049
0.00584157
0.00535521
0.00490559
0.00451476
0.00419083
0.00397289
0.00371858
9.19467e-06
9.10801e-06
8.91406e-06
8.84908e-06
8.98398e-06
9.08609e-06
9.10768e-06
8.95207e-06
8.976e-06
9.30726e-06
9.38039e-06
9.19094e-06
9.11144e-06
9.14844e-06
8.95343e-06
8.67093e-06
8.45574e-06
9.0488e-06
1.02161e-05
1.06393e-05
9.63145e-06
7.68339e-06
6.51351e-06
7.32603e-06
1.03702e-05
1.38423e-05
1.37654e-05
9.4182e-06
5.33455e-06
4.34594e-06
6.52714e-06
1.17109e-05
1.61036e-05
1.50493e-05
9.87953e-06
5.78842e-06
5.29665e-06
7.84254e-06
1.06901e-05
1.11418e-05
1.03512e-05
9.78329e-06
9.68098e-06
9.77351e-06
9.80506e-06
9.75965e-06
9.81144e-06
1.00182e-05
8.69032e-06
0.000571224
0.00351997
0.00571316
0.00702137
0.00767823
0.0078628
0.00773266
0.00741213
0.00698655
0.00650913
0.00601465
0.00553022
0.00508007
0.00468506
0.00436325
0.00411727
0.00397662
0.00379485
9.22813e-06
9.24731e-06
9.13366e-06
8.97338e-06
8.96847e-06
9.02897e-06
9.12953e-06
9.02655e-06
8.8527e-06
9.07678e-06
9.32167e-06
9.28177e-06
9.1361e-06
9.18985e-06
9.2167e-06
8.9839e-06
8.57194e-06
8.41678e-06
9.24435e-06
1.03917e-05
1.07565e-05
9.531e-06
7.36187e-06
6.2891e-06
7.37916e-06
1.0744e-05
1.42957e-05
1.37821e-05
8.87007e-06
4.93761e-06
4.3356e-06
6.94813e-06
1.23334e-05
1.64052e-05
1.45294e-05
8.60807e-06
5.25603e-06
5.91173e-06
8.83976e-06
1.07844e-05
1.06984e-05
1.00295e-05
9.7246e-06
9.83178e-06
1.00047e-05
9.98909e-06
9.8713e-06
9.88578e-06
9.04677e-06
0.00022284
0.00275853
0.00529203
0.00681949
0.00763995
0.00793352
0.0078647
0.00757117
0.00715445
0.00668015
0.00618819
0.00570579
0.00525584
0.00485928
0.00453305
0.00428952
0.00412168
0.00405579
0.00394374
9.17311e-06
9.24773e-06
9.28546e-06
9.16262e-06
9.04432e-06
9.03405e-06
9.14192e-06
9.15124e-06
8.90672e-06
8.89474e-06
9.14928e-06
9.29835e-06
9.18673e-06
9.14704e-06
9.27792e-06
9.32704e-06
8.95183e-06
8.45505e-06
8.46647e-06
9.38759e-06
1.06227e-05
1.09153e-05
9.31697e-06
7.01432e-06
6.09026e-06
7.44939e-06
1.11423e-05
1.4809e-05
1.36653e-05
8.26745e-06
4.6336e-06
4.44984e-06
7.48688e-06
1.31294e-05
1.68088e-05
1.3213e-05
7.03059e-06
5.05921e-06
6.66832e-06
9.31093e-06
1.0433e-05
1.01246e-05
9.6447e-06
9.64903e-06
1.0009e-05
1.0269e-05
1.01993e-05
1.00004e-05
9.51814e-06
4.94557e-05
0.00193435
0.00480359
0.00655893
0.00756068
0.00798246
0.00799156
0.00773551
0.0073305
0.00685689
0.00636409
0.00588204
0.00543264
0.00503528
0.00470707
0.00445934
0.00429469
0.00420226
0.00420901
0.00415759
9.09687e-06
9.14963e-06
9.27691e-06
9.2732e-06
9.1482e-06
9.0894e-06
9.13863e-06
9.23537e-06
9.08326e-06
8.86588e-06
8.96933e-06
9.21196e-06
9.23903e-06
9.12757e-06
9.18065e-06
9.38191e-06
9.3973e-06
8.82478e-06
8.37334e-06
8.50879e-06
9.54705e-06
1.09014e-05
1.09763e-05
9.08303e-06
6.71339e-06
5.93924e-06
7.56526e-06
1.16714e-05
1.53561e-05
1.33378e-05
7.64595e-06
4.44269e-06
4.68178e-06
8.20509e-06
1.43467e-05
1.67618e-05
1.09264e-05
5.76024e-06
5.25859e-06
7.33185e-06
9.40369e-06
9.92778e-06
9.47884e-06
9.21713e-06
9.57896e-06
1.02331e-05
1.05925e-05
1.04655e-05
1.00056e-05
1.29657e-05
0.00117812
0.00424766
0.006237
0.00743318
0.00800178
0.00810664
0.0079019
0.0075156
0.00704281
0.00654556
0.00606048
0.00561028
0.00521265
0.00488318
0.00463351
0.00446526
0.00437689
0.00435736
0.00442794
0.00442535
9.05632e-06
9.05276e-06