/*--------------------------------*- C++ -*----------------------------------*\
  =========                 |
  \\      /  F ield         | OpenFOAM: The Open Source CFD Toolbox
   \\    /   O peration     | Website:  https://openfoam.org
    \\  /    A nd           | Version:  dev
     \\/     M anipulation  |
\*---------------------------------------------------------------------------*/
FoamFile
{
    version     2.0;
    format      ascii;
    class       volScalarField;
    location    "175";
    object      nuTilda;
}
// * * * * * * * * * * * * * * * * * * * * * * * * * * * * * * * * * * * * * //

dimensions      [0 2 -1 0 0 0 0];

internalField   nonuniform List<scalar> 
29380
(
6.00629e-05
6.00624e-05
6.00595e-05
6.00548e-05
6.00557e-05
6.00512e-05
6.00523e-05
6.00522e-05
6.00452e-05
6.00584e-05
6.00583e-05
6.00501e-05
6.0038e-05
6.00535e-05
6.00393e-05
6.00655e-05
6.00499e-05
6.00363e-05
6.0048e-05
6.00362e-05
6.00478e-05
6.00634e-05
6.00489e-05
6.00404e-05
6.00452e-05
6.00361e-05
6.00449e-05
6.00385e-05
6.00481e-05
6.0045e-05
6.00466e-05
6.00459e-05
6.00382e-05
6.00422e-05
6.00395e-05
6.00401e-05
6.00297e-05
6.00383e-05
6.00495e-05
6.00487e-05
6.00421e-05
6.00408e-05
6.00403e-05
6.00379e-05
6.00417e-05
6.00255e-05
6.00321e-05
6.00457e-05
6.00499e-05
6.00458e-05
6.00416e-05
6.00415e-05
6.00378e-05
6.00415e-05
6.00398e-05
6.00462e-05
6.00298e-05
6.00373e-05
6.00469e-05
6.00462e-05
6.00439e-05
6.00433e-05
6.00397e-05
6.00391e-05
6.00412e-05
6.00405e-05
6.00839e-05
6.00339e-05
6.00304e-05
6.00396e-05
6.00412e-05
6.00457e-05
6.00448e-05
6.00433e-05
6.00381e-05
6.00423e-05
6.00399e-05
6.00423e-05
6.01149e-05
6.00456e-05
6.00315e-05
6.00321e-05
6.00312e-05
6.00437e-05
6.0044e-05
6.00472e-05
6.00398e-05
6.00438e-05
6.00399e-05
6.0043e-05
6.00427e-05
6.01172e-05
6.00657e-05
6.00438e-05
6.00306e-05
6.00208e-05
6.00363e-05
6.00382e-05
6.00485e-05
6.00434e-05
6.00457e-05
6.00426e-05
6.0042e-05
6.00439e-05
6.00443e-05
6.00891e-05
6.00915e-05
6.0066e-05
6.00413e-05
6.00187e-05
6.00259e-05
6.00271e-05
6.00438e-05
6.00454e-05
6.00474e-05
6.00473e-05
6.00427e-05
6.00445e-05
6.00441e-05
6.00463e-05
6.00516e-05
6.01094e-05
6.00914e-05
6.00666e-05
6.00341e-05
6.00215e-05
6.00155e-05
6.00319e-05
6.00416e-05
6.00465e-05
6.00518e-05
6.00461e-05
6.00459e-05
6.00444e-05
6.00455e-05
6.00465e-05
6.00304e-05
6.00923e-05
6.01063e-05
6.00989e-05
6.00699e-05
6.00351e-05
6.00142e-05
6.00178e-05
6.00306e-05
6.00399e-05
6.00518e-05
6.0051e-05
6.00485e-05
6.00473e-05
6.00453e-05
6.0047e-05
6.00466e-05
6.00302e-05
6.00133e-05
6.00891e-05
6.01174e-05
6.01137e-05
6.00729e-05
6.00357e-05
6.00139e-05
6.00177e-05
6.00272e-05
6.00439e-05
6.00533e-05
6.00519e-05
6.0052e-05
6.00488e-05
6.00481e-05
6.00529e-05
6.00463e-05
6.00272e-05
5.98785e-05
6.00203e-05
6.00916e-05
6.0134e-05
6.01216e-05
6.00832e-05
6.00349e-05
6.00161e-05
6.00146e-05
6.00287e-05
6.00482e-05
6.00531e-05
6.00564e-05
6.00549e-05
6.00518e-05
6.00565e-05
6.00568e-05
6.00461e-05
5.99957e-05
5.97576e-05
5.99053e-05
6.00006e-05
6.00914e-05
6.01435e-05
6.01373e-05
6.00847e-05
6.00405e-05
6.00154e-05
6.0014e-05
6.00346e-05
6.00485e-05
6.00568e-05
6.00602e-05
6.00569e-05
6.0058e-05
6.00614e-05
6.00557e-05
6.0053e-05
5.9951e-05
5.97742e-05
5.9801e-05
5.98643e-05
5.99685e-05
6.00921e-05
6.01541e-05
6.01424e-05
6.00932e-05
6.00436e-05
6.00141e-05
6.00192e-05
6.00365e-05
6.00495e-05
6.00602e-05
6.00612e-05
6.0058e-05
6.00616e-05
6.00608e-05
6.00564e-05
6.00655e-05
5.99677e-05
6.003e-05
5.98123e-05
5.97633e-05
5.9806e-05
5.99501e-05
6.00855e-05
6.01602e-05
6.01507e-05
6.01e-05
6.00424e-05
6.00162e-05
6.00226e-05
6.00351e-05
6.00515e-05
6.00611e-05
6.00575e-05
6.00596e-05
6.00615e-05
6.00555e-05
6.00689e-05
6.00766e-05
6.0137e-05
6.04929e-05
6.00348e-05
5.98169e-05
5.97141e-05
5.97714e-05
5.99218e-05
6.00864e-05
6.0163e-05
6.0159e-05
6.00991e-05
6.00405e-05
6.00193e-05
6.00203e-05
6.00356e-05
6.00536e-05
6.00561e-05
6.00571e-05
6.006e-05
6.00545e-05
6.00613e-05
6.00878e-05
6.00807e-05
6.04701e-05
6.09338e-05
6.04573e-05
6.01043e-05
5.98274e-05
5.9687e-05
5.97326e-05
5.99124e-05
6.00796e-05
6.01697e-05
6.01587e-05
6.00945e-05
6.00416e-05
6.00182e-05
6.00204e-05
6.00394e-05
6.00522e-05
6.0055e-05
6.00582e-05
6.00552e-05
6.0053e-05
6.00799e-05
6.00983e-05
6.00914e-05
6.08189e-05
6.10039e-05
6.08906e-05
6.05649e-05
6.02023e-05
5.98414e-05
5.96637e-05
5.97153e-05
5.98968e-05
6.00825e-05
6.01722e-05
6.01561e-05
6.00938e-05
6.00428e-05
6.00188e-05
6.00251e-05
6.00448e-05
6.00524e-05
6.0057e-05
6.0058e-05
6.005e-05
6.00636e-05
6.00999e-05
6.01063e-05
6.01052e-05
6.0904e-05
6.04608e-05
6.10116e-05
6.09572e-05
6.07175e-05
6.02745e-05
5.9861e-05
5.96506e-05
5.96982e-05
5.98958e-05
6.00907e-05
6.01774e-05
6.01571e-05
6.00978e-05
6.00438e-05
6.00223e-05
6.00359e-05
6.00479e-05
6.00559e-05
6.00619e-05
6.00545e-05
6.00503e-05
6.00851e-05
6.01124e-05
6.01168e-05
6.01267e-05
6.04795e-05
5.94149e-05
6.05525e-05
6.09511e-05
6.10664e-05
6.08216e-05
6.03433e-05
5.98691e-05
5.96437e-05
5.96949e-05
5.99103e-05
6.0107e-05
6.01858e-05
6.0165e-05
6.00989e-05
6.00439e-05
6.00325e-05
6.00417e-05
6.0053e-05
6.00641e-05
6.00639e-05
6.00487e-05
6.00646e-05
6.01035e-05
6.01265e-05
6.01375e-05
6.01523e-05
5.95554e-05
5.83918e-05
5.95451e-05
6.03463e-05
6.09049e-05
6.11339e-05
6.09098e-05
6.03814e-05
5.98811e-05
5.96396e-05
5.97095e-05
5.9933e-05
6.01257e-05
6.01998e-05
6.01679e-05
6.00956e-05
6.00464e-05
6.00386e-05
6.00472e-05
6.00613e-05
6.00716e-05
6.00597e-05
6.00517e-05
6.00838e-05
6.01235e-05
6.01454e-05
6.01669e-05
6.01703e-05
5.85079e-05
5.80831e-05
5.84361e-05
5.92898e-05
6.01046e-05
6.08639e-05
6.11828e-05
6.09661e-05
6.0412e-05
5.98769e-05
5.96418e-05
5.97239e-05
5.99556e-05
6.01468e-05
6.0209e-05
6.01649e-05
6.00879e-05
6.00489e-05
6.00419e-05
6.00523e-05
6.00709e-05
6.00756e-05
6.00549e-05
6.00643e-05
6.01061e-05
6.01418e-05
6.01728e-05
6.01897e-05
6.01898e-05
5.79449e-05
5.88789e-05
5.79194e-05
5.83101e-05
5.89472e-05
5.99393e-05
6.08209e-05
6.12247e-05
6.10031e-05
6.04091e-05
5.98559e-05
5.96291e-05
5.97329e-05
5.99777e-05
6.01663e-05
6.02141e-05
6.01537e-05
6.00849e-05
6.00473e-05
6.00412e-05
6.0059e-05
6.00836e-05
6.00714e-05
6.00574e-05
6.00817e-05
6.01249e-05
6.01654e-05
6.02037e-05
6.02045e-05
6.02195e-05
5.83511e-05
6.04959e-05
5.85118e-05
5.80651e-05
5.80741e-05
5.87326e-05
5.98009e-05
6.08119e-05
6.12494e-05
6.10061e-05
6.03688e-05
5.9809e-05
5.96044e-05
5.97395e-05
6.00035e-05
6.01854e-05
6.02125e-05
6.01478e-05
6.00779e-05
6.00403e-05
6.00414e-05
6.0075e-05
6.00879e-05
6.00677e-05
6.00648e-05
6.00993e-05
6.01463e-05
6.02005e-05
6.02287e-05
6.02327e-05
6.02568e-05
5.97261e-05
6.20256e-05
6.01242e-05
5.89065e-05
5.81391e-05
5.79487e-05
5.85657e-05
5.97287e-05
6.08089e-05
6.1265e-05
6.09723e-05
6.03065e-05
5.97457e-05
5.9575e-05
5.97551e-05
6.00333e-05
6.02049e-05
6.02122e-05
6.01403e-05
6.00672e-05
6.00335e-05
6.00525e-05
6.00894e-05
6.00868e-05
6.00667e-05
6.00777e-05
6.0119e-05
6.01822e-05
6.02374e-05
6.02661e-05
6.02754e-05
6.03018e-05
6.14819e-05
6.24695e-05
6.19633e-05
6.05464e-05
5.93405e-05
5.82178e-05
5.78628e-05
5.84613e-05
5.96964e-05
6.08403e-05
6.12749e-05
6.09397e-05
6.0232e-05
5.96737e-05
5.95563e-05
5.97771e-05
6.00709e-05
6.0219e-05
6.02133e-05
6.01323e-05
6.00567e-05
6.0034e-05
6.00713e-05
6.00983e-05
6.00852e-05
6.00729e-05
6.00936e-05
6.01511e-05
6.02274e-05
6.02806e-05
6.03208e-05
6.03249e-05
6.03636e-05
6.27243e-05
6.14432e-05
6.29277e-05
6.21114e-05
6.11614e-05
5.96228e-05
5.82963e-05
5.77914e-05
5.84148e-05
5.97354e-05
6.09155e-05
6.13197e-05
6.09119e-05
6.01453e-05
5.96086e-05
5.95437e-05
5.98096e-05
6.01002e-05
6.02376e-05
6.02173e-05
6.01243e-05
6.00465e-05
6.00477e-05
6.00903e-05
6.01048e-05
6.00871e-05
6.00818e-05
6.01168e-05
6.01955e-05
6.0271e-05
6.03364e-05
6.03866e-05
6.03883e-05
6.04453e-05
6.27708e-05
5.95298e-05
6.23113e-05
6.26345e-05
6.25714e-05
6.15062e-05
5.98542e-05
5.83183e-05
5.77563e-05
5.84407e-05
5.98549e-05
6.10495e-05
6.13957e-05
6.08742e-05
6.00557e-05
5.95459e-05
5.95368e-05
5.98391e-05
6.01356e-05
6.02611e-05
6.02196e-05
6.01099e-05
6.0048e-05
6.00687e-05
6.01078e-05
6.01088e-05
6.00891e-05
6.00925e-05
6.01505e-05
6.02341e-05
6.03182e-05
6.04063e-05
6.04635e-05
6.04647e-05
6.05461e-05
6.15693e-05
5.79563e-05
6.03433e-05
6.17001e-05
6.26394e-05
6.27718e-05
6.17701e-05
5.99792e-05
5.8318e-05
5.77474e-05
5.85389e-05
6.00271e-05
6.12357e-05
6.14744e-05
6.08212e-05
5.99629e-05
5.94793e-05
5.95384e-05
5.98745e-05
6.01766e-05
6.02803e-05
6.02126e-05
6.00998e-05
6.00599e-05
6.00913e-05
6.01199e-05
6.01095e-05
6.00887e-05
6.01096e-05
6.01812e-05
6.02682e-05
6.0379e-05
6.04858e-05
6.05495e-05
6.05509e-05
6.06722e-05
5.97348e-05
5.77591e-05
5.81395e-05
5.97887e-05
6.11826e-05
6.25578e-05
6.29021e-05
6.19376e-05
6.00202e-05
5.82693e-05
5.775e-05
5.86497e-05
6.02474e-05
6.14459e-05
6.15301e-05
6.07602e-05
5.98573e-05
5.94296e-05
5.95435e-05
5.99148e-05
6.02132e-05
6.02928e-05
6.02012e-05
6.00972e-05
6.0077e-05
6.01117e-05
6.01274e-05
6.01052e-05
6.00908e-05
6.01329e-05
6.02053e-05
6.03109e-05
6.04482e-05
6.05729e-05
6.06456e-05
6.06641e-05
6.08317e-05
5.81786e-05
5.90287e-05
5.70235e-05
5.80288e-05
5.89794e-05
6.08522e-05
6.24523e-05
6.30104e-05
6.20025e-05
5.99546e-05
5.81488e-05
5.77092e-05
5.8768e-05
6.05098e-05
6.16381e-05
6.15764e-05
6.06841e-05
5.97636e-05
5.9378e-05
5.95514e-05
5.99561e-05
6.02502e-05
6.02968e-05
6.01904e-05
6.01015e-05
6.0099e-05
6.01306e-05
6.01295e-05
6.01013e-05
6.01093e-05
6.01543e-05
6.02302e-05
6.03597e-05
6.05246e-05
6.06752e-05
6.07694e-05
6.0821e-05
6.10138e-05
5.7593e-05
6.08264e-05
5.76497e-05
5.74771e-05
5.73377e-05
5.8592e-05
6.05524e-05
6.24231e-05
6.30642e-05
6.19605e-05
5.97644e-05
5.79459e-05
5.76115e-05
5.89262e-05
6.07748e-05
6.18243e-05
6.16148e-05
6.05989e-05
5.96596e-05
5.93252e-05
5.95693e-05
6.00064e-05
6.02823e-05
6.02953e-05
6.01859e-05
6.01166e-05
6.01256e-05
6.01462e-05
6.01308e-05
6.01172e-05
6.01339e-05
6.01701e-05
6.02585e-05
6.04167e-05
6.062e-05
6.0804e-05
6.09278e-05
6.10176e-05
6.12235e-05
5.81194e-05
6.18737e-05
5.95559e-05
5.84124e-05
5.72644e-05
5.71192e-05
5.82708e-05
6.0389e-05
6.24314e-05
6.30769e-05
6.18135e-05
5.94967e-05
5.76359e-05
5.75218e-05
5.91162e-05
6.1042e-05
6.20172e-05
6.1619e-05
6.04956e-05
5.95484e-05
5.92877e-05
5.96016e-05
6.00615e-05
6.03081e-05
6.02976e-05
6.01924e-05
6.01421e-05
6.01539e-05
6.01601e-05
6.01459e-05
6.0147e-05
6.01526e-05
6.01881e-05
6.02975e-05
6.04927e-05
6.07371e-05
6.09567e-05
6.11202e-05
6.12558e-05
6.15076e-05
5.93768e-05
6.15057e-05
6.14881e-05
6.01562e-05
5.87932e-05
5.73242e-05
5.69749e-05
5.80657e-05
6.03409e-05
6.24949e-05
6.30728e-05
6.16397e-05
5.91298e-05
5.72823e-05
5.7484e-05
5.93192e-05
6.13309e-05
6.21683e-05
6.16041e-05
6.03781e-05
5.94456e-05
5.92616e-05
5.96485e-05
6.0116e-05
6.03344e-05
6.0305e-05
6.02108e-05
6.0175e-05
6.01802e-05
6.01752e-05
6.01781e-05
6.01775e-05
6.01747e-05
6.02204e-05
6.03519e-05
6.05834e-05
6.08689e-05
6.11342e-05
6.13361e-05
6.15604e-05
6.18971e-05
6.07416e-05
6.01593e-05
6.22782e-05
6.15589e-05
6.09535e-05
5.90589e-05
5.74492e-05
5.68545e-05
5.7985e-05
6.04152e-05
6.26462e-05
6.3111e-05
6.14474e-05
5.86784e-05
5.69729e-05
5.74685e-05
5.95498e-05
6.16033e-05
6.2312e-05
6.15714e-05
6.02494e-05
5.93411e-05
5.9252e-05
5.97036e-05
6.01683e-05
6.03575e-05
6.03199e-05
6.02401e-05
6.02073e-05
6.0196e-05
6.02048e-05
6.02219e-05
6.0214e-05
6.0213e-05
6.02632e-05
6.04144e-05
6.06859e-05
6.10166e-05
6.13126e-05
6.15582e-05
6.19775e-05
6.23275e-05
6.16676e-05
5.89843e-05
6.16334e-05
6.18011e-05
6.24117e-05
6.12377e-05
5.93771e-05
5.74917e-05
5.67896e-05
5.80222e-05
6.06298e-05
6.28852e-05
6.32472e-05
6.11752e-05
5.82302e-05
5.66884e-05
5.74715e-05
5.98153e-05
6.18921e-05
6.24428e-05
6.15064e-05
6.0101e-05
5.9242e-05
5.92556e-05
5.97547e-05
6.02111e-05
6.03798e-05
6.03446e-05
6.0272e-05
6.02251e-05
6.02182e-05
6.02551e-05
6.02737e-05
6.02628e-05
6.02585e-05
6.03106e-05
6.04918e-05
6.08017e-05
6.11505e-05
6.14473e-05
6.18147e-05
6.24995e-05
6.93293e-05
6.18561e-05
5.89214e-05
6.02492e-05
6.09242e-05
6.23447e-05
6.25547e-05
6.1556e-05
5.9559e-05
5.74861e-05
5.67697e-05
5.8164e-05
6.09253e-05
6.32999e-05
6.33661e-05
6.08502e-05
5.7798e-05
5.64001e-05
5.75542e-05
6.01221e-05
6.21837e-05
6.25377e-05
6.14118e-05
5.99372e-05
5.91517e-05
5.92556e-05
5.97963e-05
6.02458e-05
6.04065e-05
6.03753e-05
6.02947e-05
6.02379e-05
6.02619e-05
6.03139e-05
6.03277e-05
6.03183e-05
6.03098e-05
6.03775e-05
6.05869e-05
6.09063e-05
6.12249e-05
6.15553e-05
6.21693e-05
6.15463e-05
0.000373463
6.12857e-05
5.99386e-05
5.92072e-05
5.97086e-05
6.09376e-05
6.232e-05
6.26911e-05
6.17665e-05
5.96203e-05
5.74315e-05
5.67552e-05
5.83314e-05
6.13697e-05
6.37895e-05
6.33976e-05
6.0519e-05
5.73381e-05
5.61917e-05
5.7687e-05
6.04543e-05
6.24651e-05
6.26134e-05
6.12838e-05
5.97681e-05
5.90609e-05
5.92535e-05
5.98287e-05
6.02789e-05
6.04409e-05
6.04076e-05
6.03014e-05
6.0262e-05
6.03151e-05
6.03639e-05
6.03887e-05
6.03852e-05
6.03818e-05
6.047e-05
6.06913e-05
6.09766e-05
6.12549e-05
6.17307e-05
6.26744e-05
7.19602e-05
0.0019175
6.0211e-05
6.11075e-05
5.91296e-05
5.90412e-05
5.91841e-05
6.08407e-05
6.22158e-05
6.28053e-05
6.18579e-05
5.95747e-05
5.72875e-05
5.66979e-05
5.85146e-05
6.1952e-05
6.42095e-05
6.3393e-05
6.01509e-05
5.69011e-05
5.60132e-05
5.78632e-05
6.0821e-05
6.27587e-05
6.26579e-05
6.1135e-05
5.96037e-05
5.89805e-05
5.92493e-05
5.98569e-05
6.03193e-05
6.04868e-05
6.04183e-05
6.03004e-05
6.02972e-05
6.03561e-05
6.04192e-05
6.04681e-05
6.04691e-05
6.04836e-05
6.05985e-05
6.08095e-05
6.10294e-05
6.1332e-05
6.18592e-05
7.74139e-05
0.000923351
0.00368949
5.9054e-05
6.13818e-05
5.97929e-05
5.92579e-05
5.81748e-05
5.91262e-05
6.05816e-05
6.21725e-05
6.28677e-05
6.18489e-05
5.94125e-05
5.70637e-05
5.6493e-05
5.88169e-05
6.25346e-05
6.45709e-05
6.33671e-05
5.97226e-05
5.64483e-05
5.5878e-05
5.81074e-05
6.12348e-05
6.30522e-05
6.26784e-05
6.09956e-05
5.94606e-05
5.89096e-05
5.92437e-05
5.98919e-05
6.03764e-05
6.05155e-05
6.04014e-05
6.03104e-05
6.03311e-05
6.03977e-05
6.04957e-05
6.05584e-05
6.05787e-05
6.06393e-05
6.07822e-05
6.09514e-05
6.11256e-05
6.1494e-05
6.07598e-05
0.000519549
0.00292077
0.00493861
5.83888e-05
6.04565e-05
6.04243e-05
5.99882e-05
5.83857e-05
5.81794e-05
5.88689e-05
6.04158e-05
6.21648e-05
6.28867e-05
6.17753e-05
5.91876e-05
5.66094e-05
5.63027e-05
5.92015e-05
6.30619e-05
6.49452e-05
6.32314e-05
5.92305e-05
5.60136e-05
5.58023e-05
5.84087e-05
6.16966e-05
6.33397e-05
6.27082e-05
6.0878e-05
5.93355e-05
5.88431e-05
5.92461e-05
5.99454e-05
6.0433e-05
6.05069e-05
6.03876e-05
6.03397e-05
6.03601e-05
6.04542e-05
6.058e-05
6.06641e-05
6.07411e-05
6.0863e-05
6.10109e-05
6.11333e-05
6.13055e-05
6.13973e-05
0.000221072
0.0023337
0.00442455
0.00583558
5.85131e-05
5.90844e-05
6.04222e-05
6.05366e-05
5.94791e-05
5.83824e-05
5.805e-05
5.868e-05
6.03426e-05
6.21812e-05
6.29259e-05
6.16956e-05
5.87965e-05
5.60386e-05
5.62316e-05
5.95698e-05
6.3633e-05
6.52375e-05
6.30133e-05
5.87132e-05
5.55838e-05
5.57507e-05
5.87904e-05
6.21859e-05
6.36298e-05
6.27445e-05
6.07759e-05
5.92176e-05
5.87857e-05
5.92681e-05
6.0024e-05
6.0462e-05
6.04835e-05
6.04096e-05
6.03639e-05
6.0388e-05
6.05204e-05
6.06707e-05
6.08038e-05
6.09539e-05
6.11194e-05
6.1263e-05
6.13918e-05
6.11922e-05
0.00010453
0.00164135
0.00404156
0.00551246
0.00644242
5.94793e-05
5.82994e-05
5.98748e-05
6.04827e-05
6.06262e-05
5.9388e-05
5.84163e-05
5.79381e-05
5.85866e-05
6.03379e-05
6.22709e-05
6.30142e-05
6.16294e-05
5.82204e-05
5.55451e-05
5.62082e-05
5.99845e-05
6.42161e-05
6.54783e-05
6.27292e-05
5.81326e-05
5.51143e-05
5.57612e-05
5.92262e-05
6.26679e-05
6.38998e-05
6.27808e-05
6.06764e-05
5.91051e-05
5.87487e-05
5.93404e-05
6.01064e-05
6.0456e-05
6.04918e-05
6.04368e-05
6.03685e-05
6.04289e-05
6.05934e-05
6.07703e-05
6.09621e-05
6.11685e-05
6.13705e-05
6.15695e-05
6.16442e-05
6.79555e-05
0.0010021
0.00357204
0.00525442
0.00627159
0.00681014
6.07072e-05
5.88618e-05
5.93584e-05
6.00005e-05
6.11575e-05
6.04563e-05
5.95423e-05
5.84297e-05
5.78775e-05
5.8573e-05
6.03956e-05
6.24246e-05
6.32931e-05
6.1429e-05
5.76222e-05
5.51553e-05
5.61975e-05
6.05036e-05
6.48172e-05
6.56392e-05
6.23507e-05
5.74611e-05
5.46308e-05
5.582e-05
5.96495e-05
6.31085e-05
6.41499e-05
6.28102e-05
6.05704e-05
5.90074e-05
5.87723e-05
5.94604e-05
6.01482e-05
6.04519e-05
6.05252e-05
6.04361e-05
6.03818e-05
6.04861e-05
6.06591e-05
6.08636e-05
6.11002e-05
6.13525e-05
6.16489e-05
6.19343e-05
6.17225e-05
0.000517398
0.00303512
0.00493162
0.00611577
0.00675965
0.0069831
6.13725e-05
6.02459e-05
5.95144e-05
5.95922e-05
6.092e-05
6.1016e-05
6.06532e-05
5.96677e-05
5.84291e-05
5.78815e-05
5.85689e-05
6.04847e-05
6.28212e-05
6.35851e-05
6.11157e-05
5.71356e-05
5.47268e-05
5.63044e-05
6.11091e-05
6.53655e-05
6.57406e-05
6.18876e-05
5.66792e-05
5.41494e-05
5.58721e-05
6.00348e-05
6.35199e-05
6.43876e-05
6.28168e-05
6.04593e-05
5.89523e-05
5.88785e-05
5.95636e-05
6.01492e-05
6.04905e-05
6.05455e-05
6.04272e-05
6.04193e-05
6.05379e-05
6.07122e-05
6.09404e-05
6.12025e-05
6.15384e-05
6.1995e-05
6.15378e-05
0.000233156
0.0024064
0.00456753
0.00591453
0.00668506
0.00702664
0.00700002
6.14251e-05
6.13198e-05
6.02356e-05
5.97173e-05
6.02883e-05
6.09207e-05
6.11825e-05
6.0832e-05
5.97205e-05
5.8458e-05
5.78532e-05
5.85446e-05
6.07062e-05
6.33792e-05
6.37476e-05
6.08553e-05
5.65782e-05
5.43279e-05
5.65179e-05
6.17223e-05
6.59351e-05
6.58308e-05
6.12667e-05
5.58367e-05
5.36767e-05
5.59211e-05
6.04034e-05
6.39252e-05
6.45938e-05
6.27854e-05
6.03416e-05
5.89803e-05
5.90196e-05
5.95975e-05
6.01909e-05
6.05565e-05
6.05358e-05
6.04333e-05
6.04689e-05
6.05897e-05
6.07734e-05
6.09997e-05
6.12906e-05
6.1778e-05
6.18866e-05
0.000108423
0.001718
0.00416211
0.00567613
0.00658266
0.00701521
0.007116
0.00689461
6.05339e-05
6.16601e-05
6.08906e-05
6.02362e-05
5.97872e-05
6.04519e-05
6.09938e-05
6.13422e-05
6.09128e-05
5.97471e-05
5.84588e-05
5.7777e-05
5.8457e-05
6.11336e-05
6.38799e-05
6.38601e-05
6.05405e-05
5.59213e-05
5.39865e-05
5.68061e-05
6.24244e-05
6.65905e-05
6.58179e-05
6.0551e-05
5.5016e-05
5.32488e-05
5.59825e-05
6.07823e-05
6.43113e-05
6.47329e-05
6.2682e-05
6.02584e-05
5.90962e-05
5.91005e-05
5.96375e-05
6.03096e-05
6.05896e-05
6.05103e-05
6.04709e-05
6.05432e-05
6.06768e-05
6.08459e-05
6.10407e-05
6.14159e-05
6.18504e-05
6.92561e-05
0.00106688
0.00370781
0.00540191
0.00644792
0.00699076
0.00715294
0.00706522
0.00669595
5.94168e-05
6.07524e-05
6.1082e-05
6.06519e-05
5.96477e-05
5.99876e-05
6.03891e-05
6.10642e-05
6.14289e-05
6.0903e-05
5.97832e-05
5.84289e-05
5.74938e-05
5.84796e-05
6.16143e-05
6.42409e-05
6.39799e-05
6.00602e-05
5.52282e-05
5.37576e-05
5.71837e-05
6.32615e-05
6.72892e-05
6.57394e-05
5.98544e-05
5.42656e-05
5.28573e-05
5.60665e-05
6.1175e-05
6.4632e-05
6.4753e-05
6.25268e-05
6.02777e-05
5.92028e-05
5.91269e-05
5.97796e-05
6.04363e-05
6.05729e-05
6.05194e-05
6.05609e-05
6.06693e-05
6.07969e-05
6.09046e-05
6.11058e-05
6.15548e-05
6.09392e-05
0.000562802
0.00317624
0.00509144
0.00628288
0.00693922
0.00718858
0.00713864
0.00690658
0.00642901
5.88081e-05
5.93968e-05
6.04308e-05
6.07014e-05
5.98281e-05
5.97374e-05
5.97921e-05
6.03257e-05
6.11363e-05
6.13805e-05
6.09264e-05
5.98347e-05
5.81976e-05
5.71491e-05
5.86257e-05
6.19382e-05
6.46776e-05
6.39981e-05
5.94666e-05
5.46317e-05
5.3549e-05
5.76526e-05
6.42958e-05
6.80065e-05
6.5658e-05
5.92032e-05
5.35464e-05
5.24786e-05
5.61973e-05
6.15517e-05
6.48431e-05
6.46387e-05
6.24257e-05
6.0358e-05
5.91969e-05
5.92196e-05
6.00116e-05
6.05129e-05
6.05672e-05
6.05988e-05
6.07088e-05
6.08352e-05
6.09113e-05
6.09775e-05
6.12653e-05
6.01144e-05
0.000255194
0.00254314
0.00474087
0.00608819
0.00686353
0.00720188
0.00721975
0.00700693
0.00666773
0.00611518
5.90402e-05
5.86182e-05
5.94311e-05
6.01829e-05
6.00135e-05
5.97431e-05
5.94727e-05
5.96037e-05
6.03596e-05
6.1097e-05
6.13397e-05
6.09972e-05
5.98288e-05
5.77778e-05
5.69093e-05
5.86897e-05
6.23626e-05
6.51752e-05
6.39003e-05
5.89006e-05
5.39717e-05
5.33185e-05
5.83707e-05
6.54337e-05
6.86923e-05
6.55534e-05
5.85439e-05
5.28043e-05
5.21492e-05
5.63934e-05
6.19002e-05
6.4896e-05
6.44822e-05
6.24371e-05
6.03119e-05
5.91484e-05
5.94763e-05
6.02563e-05
6.05591e-05
6.06211e-05
6.07367e-05
6.08946e-05
6.10048e-05
6.10307e-05
6.11519e-05
6.05991e-05
0.000113594
0.00183557
0.00434385
0.00586386
0.00676369
0.00719689
0.00728239
0.00712171
0.00678736
0.00637233
0.00577282
5.98546e-05
5.8893e-05
5.88568e-05
5.95094e-05
6.00871e-05
5.97937e-05
5.95453e-05
5.92256e-05
5.9564e-05
6.0387e-05
6.10055e-05
6.13316e-05
6.11826e-05
5.96441e-05
5.73756e-05
5.67153e-05
5.88103e-05
6.29922e-05
6.56407e-05
6.37386e-05
5.82425e-05
5.3188e-05
5.32309e-05
5.92134e-05
6.65276e-05
6.92884e-05
6.5393e-05
5.78225e-05
5.20675e-05
5.19477e-05
5.66858e-05
6.21601e-05
6.48191e-05
6.4441e-05
6.23832e-05
6.00762e-05
5.92496e-05
5.98562e-05
6.04416e-05
6.061e-05
6.07233e-05
6.09115e-05
6.10954e-05
6.11721e-05
6.12219e-05
6.11136e-05
6.76141e-05
0.00114932
0.00388603
0.00560583
0.00664087
0.00717288
0.00733175
0.0072211
0.00692638
0.00650519
0.00604081
0.00541797
6.06319e-05
5.98856e-05
5.91281e-05
5.92227e-05
6e-05
5.98887e-05
5.97669e-05
5.93681e-05
5.90977e-05
5.9663e-05
6.03189e-05
6.0894e-05
6.15179e-05
6.13239e-05
5.93894e-05
5.71237e-05
5.64881e-05
5.91466e-05
6.37097e-05
6.59763e-05
6.35365e-05
5.74483e-05
5.23319e-05
5.32004e-05
6.00304e-05
6.7522e-05
6.98144e-05
6.51653e-05
5.70366e-05
5.14459e-05
5.19381e-05
5.7033e-05
6.22763e-05
6.48095e-05
6.44659e-05
6.20381e-05
5.98298e-05
5.95593e-05
6.01972e-05
6.05425e-05
6.06724e-05
6.08624e-05
6.11146e-05
6.12924e-05
6.13745e-05
6.14471e-05
5.89256e-05
0.000603876
0.00333859
0.00530508
0.00649367
0.0071313
0.0073666
0.00731121
0.00705244
0.00666093
0.00618211
0.00569094
0.00506498
6.0867e-05
6.07966e-05
5.99991e-05
5.9542e-05
5.99337e-05
5.99556e-05
6.00775e-05
5.97549e-05
5.91979e-05
5.92071e-05
5.9699e-05
6.01797e-05
6.0914e-05
6.18224e-05
6.13713e-05
5.93017e-05
5.67617e-05
5.63277e-05
5.9643e-05
6.42972e-05
6.63603e-05
6.32873e-05
5.63915e-05
5.14191e-05
5.31866e-05
6.08146e-05
6.84901e-05
7.03257e-05
6.48319e-05
5.62617e-05
5.1007e-05
5.2123e-05
5.73209e-05
6.23873e-05
6.50176e-05
6.42416e-05
6.14127e-05
5.9755e-05
5.99155e-05
6.0386e-05
6.05899e-05
6.07638e-05
6.10404e-05
6.13198e-05
6.15003e-05
6.16512e-05
5.95005e-05
0.000266303
0.00267518
0.00495172
0.00631699
0.0070724
0.00738843
0.00739054
0.00717237
0.00680573
0.00634871
0.00583705
0.00533868
0.00472722
6.05056e-05
6.10116e-05
6.07885e-05
6.02036e-05
6.00212e-05
6.00446e-05
6.02491e-05
6.02696e-05
5.96094e-05
5.92207e-05
5.93487e-05
5.96666e-05
6.00217e-05
6.11184e-05
6.20818e-05
6.1506e-05
5.9096e-05
5.62539e-05
5.62917e-05
6.00827e-05
6.49824e-05
6.68193e-05
6.27401e-05
5.52e-05
5.05619e-05
5.32442e-05
6.16543e-05
6.95343e-05
7.0768e-05
6.43668e-05
5.55325e-05
5.08006e-05
5.23846e-05
5.75415e-05
6.28085e-05
6.52113e-05
6.35148e-05
6.07524e-05
5.9846e-05
6.01565e-05
6.04648e-05
6.06462e-05
6.08968e-05
6.12317e-05
6.15289e-05
6.1777e-05
6.09888e-05
0.000112794
0.00192059
0.00453845
0.00610317
0.00699397
0.00739838
0.00746051
0.00728447
0.00694684
0.00650604
0.00600999
0.0054869
0.00499882
0.00441775
5.99072e-05
6.05165e-05
6.09387e-05
6.06928e-05
6.02165e-05
6.01732e-05
6.02515e-05
6.05416e-05
6.02564e-05
5.9499e-05
5.93653e-05
5.94779e-05
5.94949e-05
5.99794e-05
6.13489e-05
6.23027e-05
6.15938e-05
5.8617e-05
5.57397e-05
5.63095e-05
6.05843e-05
6.58025e-05
6.7132e-05
6.20761e-05
5.40701e-05
4.9843e-05
5.34196e-05
6.26379e-05
7.06223e-05
7.09982e-05
6.37471e-05
5.49205e-05
5.07611e-05
5.25457e-05
5.80328e-05
6.35817e-05
6.49382e-05
6.24497e-05
6.03286e-05
6.00102e-05
6.03088e-05
6.05359e-05
6.07403e-05
6.10541e-05
6.14297e-05
6.18024e-05
6.18361e-05
6.62806e-05
0.00118127
0.00405237
0.00584335
0.00689067
0.00739626
0.00752272
0.00739003
0.00708242
0.00666161
0.00617511
0.00566285
0.00514733
0.00468568
0.00414968
5.95185e-05
5.98e-05
6.04276e-05
6.06598e-05
6.03457e-05
6.02844e-05
6.01472e-05
6.0466e-05
6.06943e-05
6.00579e-05
5.95522e-05
5.95661e-05
5.94473e-05
5.92887e-05
6e-05
6.14511e-05
6.25852e-05
6.146e-05
5.79884e-05
5.5364e-05
5.62964e-05
6.11742e-05
6.67202e-05
6.74293e-05
6.14375e-05
5.30529e-05
4.92306e-05
5.37199e-05
6.37841e-05
7.15588e-05
7.09391e-05
6.30223e-05
5.44383e-05
5.061e-05
5.27836e-05
5.91933e-05
6.42965e-05
6.41155e-05
6.1545e-05
6.02495e-05
6.02285e-05
6.04671e-05
6.06438e-05
6.08671e-05
6.12215e-05
6.16821e-05
6.21022e-05
5.92264e-05
0.000599711
0.00346177
0.00552798
0.00675456
0.00737917
0.00757836
0.00749081
0.00721357
0.00681344
0.00634
0.00583227
0.005324
0.00483339
0.0044135
0.00393605
5.95439e-05
5.94045e-05
5.97197e-05
6.01761e-05
6.02717e-05
6.02956e-05
6.00324e-05
6.01408e-05
6.07104e-05
6.05414e-05
5.99537e-05
5.97061e-05
5.96966e-05
5.92641e-05
5.91194e-05
5.9883e-05
6.16843e-05
6.28485e-05
6.11221e-05
5.75029e-05
5.4885e-05
5.62593e-05
6.20402e-05
6.77304e-05
6.76947e-05
6.08039e-05
5.20524e-05
4.86261e-05
5.42087e-05
6.49663e-05
7.22488e-05
7.05816e-05
6.22685e-05
5.38405e-05
5.02425e-05
5.37297e-05
6.09537e-05
6.45473e-05
6.31888e-05
6.11378e-05
6.04347e-05
6.05041e-05
6.06713e-05
6.07931e-05
6.10056e-05
6.14204e-05
6.20051e-05
6.02731e-05
0.000253096
0.00273924
0.0051477
0.00657687
0.00734108
0.00762661
0.00758888
0.00734201
0.00696242
0.0065026
0.00600268
0.00549524
0.00500938
0.00455997
0.00419624
0.00378868
5.98575e-05
5.95245e-05
5.93503e-05
5.96385e-05
6.00231e-05
6.01774e-05
5.99784e-05
5.98005e-05
6.03276e-05
6.07191e-05
6.03447e-05
5.99235e-05
5.99116e-05
5.96845e-05
5.9064e-05
5.88858e-05
5.98846e-05
6.2109e-05
6.29879e-05
6.08463e-05
5.69254e-05
5.42962e-05
5.64994e-05
6.30315e-05
6.86673e-05
6.78484e-05
6.0076e-05
5.09109e-05
4.80937e-05
5.49309e-05
6.61277e-05
7.26212e-05
7.00218e-05
6.14053e-05
5.2759e-05
5.02074e-05
5.58143e-05
6.26967e-05
6.43245e-05
6.25632e-05
6.11062e-05
6.07282e-05
6.08369e-05
6.09283e-05
6.09596e-05
6.11486e-05
6.16669e-05
6.13778e-05
0.000106056
0.00192514
0.004696
0.00634932
0.00727422
0.00766373
0.00768509
0.00747026
0.00711006
0.00666353
0.00617197
0.0056685
0.00518091
0.00473463
0.0043415
0.00404641
0.00371605
6.01722e-05
5.99444e-05
5.95162e-05
5.94341e-05
5.97741e-05
5.99912e-05
5.99959e-05
5.96633e-05
5.98042e-05
6.05032e-05
6.05684e-05
6.01435e-05
6.00272e-05
6.00661e-05
5.96283e-05
5.88958e-05
5.8677e-05
6.01665e-05
6.25751e-05
6.30687e-05
6.0565e-05
5.62451e-05
5.38194e-05
5.68031e-05
6.39534e-05
6.94496e-05
6.78543e-05
5.91326e-05
4.96382e-05
4.78539e-05
5.59113e-05
6.7174e-05
7.27479e-05
6.93986e-05
5.99658e-05
5.13069e-05
5.13003e-05
5.8514e-05
6.37111e-05
6.38007e-05
6.21435e-05
6.11623e-05
6.10661e-05
6.12291e-05
6.12174e-05
6.11181e-05
6.13067e-05
6.15881e-05
6.51617e-05
0.00115393
0.00416174
0.00606414
0.00717037
0.00768349
0.00777785
0.00760039
0.00725903
0.006824
0.00634052
0.0058416
0.00535526
0.00490564
0.00451482
0.0041909
0.00397297
0.00371867
6.02817e-05
6.02908e-05
5.99899e-05
5.96535e-05
5.97001e-05
5.98507e-05
6.00456e-05
5.97896e-05
5.9475e-05
6.00305e-05
6.0503e-05
6.03428e-05
6.00573e-05
6.02142e-05
6.01853e-05
5.96548e-05
5.86434e-05
5.8645e-05
6.06376e-05
6.29025e-05
6.32375e-05
6.02661e-05
5.54615e-05
5.33069e-05
5.70866e-05
6.47802e-05
7.01292e-05
6.77144e-05
5.79087e-05
4.85126e-05
4.80122e-05
5.70938e-05
6.8129e-05
7.29243e-05
6.83771e-05
5.74598e-05
5.02421e-05
5.34688e-05
6.06106e-05
6.36958e-05
6.30102e-05
6.16765e-05
6.12017e-05
6.14463e-05
6.16716e-05
6.15135e-05
6.12821e-05
6.13792e-05
5.90398e-05
0.000575648
0.00352008
0.0057132
0.0070214
0.00767825
0.00786282
0.00773269
0.00741216
0.00698657
0.00650916
0.00601469
0.00553026
0.00508011
0.00468511
0.00436332
0.00411734
0.0039767
0.00379494
6.01811e-05
6.0341e-05
6.03686e-05
6.00688e-05
5.98378e-05
5.98384e-05
6.00792e-05
6.00571e-05
5.95281e-05
5.95983e-05
6.01716e-05
6.04165e-05
6.01414e-05
6.0115e-05
6.04119e-05
6.03972e-05
5.95556e-05
5.83656e-05
5.88194e-05
6.09766e-05
6.3341e-05
6.3478e-05
5.97375e-05
5.45889e-05
5.28399e-05
5.73927e-05
6.56159e-05
7.08449e-05
6.73252e-05
5.65622e-05
4.76644e-05
4.85938e-05
5.84585e-05
6.92955e-05
7.31252e-05
6.60365e-05
5.4154e-05
5.02085e-05
5.56717e-05
6.13781e-05
6.28924e-05
6.19756e-05
6.10934e-05
6.12286e-05
6.18798e-05
6.21584e-05
6.1842e-05
6.14564e-05
5.95481e-05
0.000245982
0.0027587
0.00529208
0.00681952
0.00763997
0.00793354
0.00786472
0.0075712
0.00715448
0.00668018
0.00618822
0.00570583
0.00525589
0.00485933
0.00453311
0.00428959
0.00412175
0.00405587
0.00394383
6.00088e-05
6.01452e-05
6.04077e-05
6.03538e-05
6.00664e-05
5.99461e-05
6.00767e-05
6.02654e-05
5.9885e-05
5.94703e-05
5.97706e-05
6.02779e-05
6.02631e-05
6.00345e-05
6.02201e-05
6.06525e-05
6.05068e-05
5.92816e-05
5.81868e-05
5.89559e-05
6.13662e-05
6.38722e-05
6.35139e-05
5.91496e-05
5.38053e-05
5.24885e-05
5.78034e-05
6.66598e-05
7.15304e-05
6.6605e-05
5.51658e-05
4.71916e-05
4.95573e-05
6.01589e-05
7.09839e-05
7.2471e-05
6.19382e-05
5.12587e-05
5.11831e-05
5.71649e-05
6.12294e-05
6.17431e-05
6.07506e-05
6.0419e-05
6.12792e-05
6.23933e-05
6.27318e-05
6.22523e-05
6.08452e-05
0.000107921
0.00193472
0.00480364
0.00655895
0.00756071
0.00798248
0.00799158
0.00773553
0.00733052
0.00685692
0.00636412
0.00588208
0.00543268
0.00503533
0.00470713
0.00445941
0.00429476
0.00420234
0.00420908
0.00415766
5.9903e-05
5.99152e-05
6.01656e-05
6.03402e-05
6.02138e-05
6.00854e-05
6.00534e-05
6.02867e-05
6.02743e-05
5.96961e-05
5.9552e-05
5.99778e-05
6.02864e-05
6.00939e-05
5.99685e-05
6.03061e-05
6.08909e-05
6.03829e-05
5.89525e-05
5.80824e-05
5.90503e-05
6.17956e-05
6.43338e-05
6.35668e-05
5.86456e-05
5.3149e-05
5.22549e-05
5.84552e-05
6.7943e-05
7.18967e-05
6.55119e-05
5.38276e-05
4.70531e-05
5.08319e-05
6.26974e-05
7.28793e-05
7.00089e-05
5.73326e-05
5.01742e-05
5.29535e-05
5.83282e-05
6.08939e-05
6.04456e-05
5.93838e-05
5.97121e-05
6.14173e-05
6.30465e-05
6.34551e-05
6.24885e-05
6.80232e-05
0.00117917
0.00424773
0.00623704
0.00743321
0.0080018
0.00810665
0.00790192
0.00751562
0.00704284
0.00654559
0.00606051
0.00561031
0.0052127
0.00488323
0.00463357
0.00446532
0.00437695
0.00435743
0.00442801
0.00442541
5.99051e-05