/*--------------------------------*- C++ -*----------------------------------*\
  =========                 |
  \\      /  F ield         | OpenFOAM: The Open Source CFD Toolbox
   \\    /   O peration     | Website:  https://openfoam.org
    \\  /    A nd           | Version:  dev
     \\/     M anipulation  |
\*---------------------------------------------------------------------------*/
FoamFile
{
    version     2.0;
    format      ascii;
    class       surfaceScalarField;
    location    "175";
    object      phi;
}
// * * * * * * * * * * * * * * * * * * * * * * * * * * * * * * * * * * * * * //

dimensions      [0 3 -1 0 0 0 0];

internalField   nonuniform List<scalar> 
58294
(
-0.473042
0.000115105
-0.473046
0.000106227
-0.429712
9.66027e-05
-0.473049
9.88762e-05
-0.429699
9.28358e-05
-0.389858
9.29866e-05
-0.473052
9.37823e-05
-0.429688
8.82487e-05
-0.389852
8.66545e-05
-0.353969
7.65302e-05
-0.473056
8.93009e-05
-0.429679
8.41331e-05
-0.389846
8.15757e-05
-0.353956
7.43931e-05
-0.321211
6.81254e-05
-0.47306
8.52467e-05
-0.42967
8.04414e-05
-0.38984
7.82835e-05
-0.353946
7.13342e-05
-0.321201
6.48664e-05
-0.291547
5.49376e-05
-0.473065
8.13756e-05
-0.429662
7.70396e-05
-0.389835
7.54364e-05
-0.353937
6.89896e-05
-0.321192
6.21417e-05
-0.291536
5.42415e-05
-0.264584
4.55253e-05
-0.473071
7.76126e-05
-0.429654
7.37726e-05
-0.38983
7.28677e-05
-0.353928
6.70122e-05
-0.321184
6.07235e-05
-0.291527
5.28203e-05
-0.264574
4.48078e-05
-0.240125
3.50436e-05
-0.473077
7.38967e-05
-0.429647
7.05507e-05
-0.389827
7.03537e-05
-0.353921
6.52508e-05
-0.321176
5.96627e-05
-0.291518
5.22779e-05
-0.264566
4.4014e-05
-0.240116
3.57514e-05
-0.217913
2.64061e-05
-0.473083
7.02239e-05
-0.42964
6.73262e-05
-0.389824
6.78123e-05
-0.353914
6.34912e-05
-0.32117
5.87542e-05
-0.291511
5.20442e-05
-0.264558
4.42631e-05
-0.240108
3.58137e-05
-0.217905
2.75635e-05
-0.197758
1.8054e-05
-0.47309
6.65862e-05
-0.429634
6.40832e-05
-0.389822
6.51728e-05
-0.353908
6.16512e-05
-0.321164
5.78453e-05
-0.291504
5.20176e-05
-0.26455
4.48787e-05
-0.2401
3.67629e-05
-0.217898
2.82097e-05
-0.19775
2.00322e-05
-0.179465
1.07969e-05
-0.473097
6.3006e-05
-0.429628
6.08298e-05
-0.389821
6.24363e-05
-0.353902
5.96374e-05
-0.321159
5.67711e-05
-0.291498
5.19248e-05
-0.264544
4.56319e-05
-0.240093
3.80309e-05
-0.217891
2.97049e-05
-0.197743
2.12826e-05
-0.179458
1.32832e-05
-0.162862
4.23403e-06
-0.473105
5.94924e-05
-0.429623
5.75787e-05
-0.389819
5.9591e-05
-0.353897
5.74534e-05
-0.321155
5.54949e-05
-0.291493
5.1699e-05
-0.264538
4.64175e-05
-0.240087
3.95798e-05
-0.217884
3.16045e-05
-0.197737
2.32526e-05
-0.179452
1.50001e-05
-0.162856
7.21571e-06
-0.147796
-1.55857e-06
-0.473112
5.60653e-05
-0.429618
5.43609e-05
-0.389818
5.66809e-05
-0.353893
5.50766e-05
-0.321152
5.39342e-05
-0.291488
5.11872e-05
-0.264534
4.70143e-05
-0.240082
4.11143e-05
-0.217878
3.37263e-05
-0.197731
2.55584e-05
-0.179446
1.72944e-05
-0.16285
9.39041e-06
-0.14779
1.81699e-06
-0.134123
-6.63935e-06
-0.47312
5.27406e-05
-0.429613
5.11875e-05
-0.389818
5.37172e-05
-0.353889
5.25541e-05
-0.321149
5.2127e-05
-0.291485
5.03785e-05
-0.26453
4.73659e-05
-0.240078
4.25887e-05
-0.217873
3.60281e-05
-0.197725
2.82471e-05
-0.179441
1.99716e-05
-0.162845
1.19474e-05
-0.147785
4.36463e-06
-0.134119
-3.02862e-06
-0.121713
-1.10692e-05
-0.473128
4.95281e-05
-0.429608
4.80965e-05
-0.389817
5.07503e-05
-0.353885
4.99058e-05
-0.321146
5.00485e-05
-0.291482
4.9205e-05
-0.264527
4.7356e-05
-0.240074
4.37981e-05
-0.217869
3.8254e-05
-0.19772
3.10892e-05
-0.179435
2.29627e-05
-0.162839
1.47764e-05
-0.14778
7.08842e-06
-0.134114
-8.91764e-08
-0.121709
-7.31075e-06
-0.110452
-1.47994e-05
-0.473135
4.64372e-05
-0.429604
4.50894e-05
-0.389817
4.77992e-05
-0.353881
4.7185e-05
-0.321144
4.77814e-05
-0.29148
4.77117e-05
-0.264525
4.69561e-05
-0.240071
4.46694e-05
-0.217865
4.0332e-05
-0.197716
3.40634e-05
-0.17943
2.63139e-05
-0.162834
1.80268e-05
-0.147775
1.00564e-05
-0.13411
2.77843e-06
-0.121705
-4.09398e-06
-0.110449
-1.11414e-05
-0.100234
-1.78822e-05
-0.473143
4.34761e-05
-0.429599
4.21954e-05
-0.389817
4.49051e-05
-0.353878
4.44304e-05
-0.321142
4.5329e-05
-0.291478
4.58922e-05
-0.264523
4.6129e-05
-0.240069
4.51224e-05
-0.217863
4.21248e-05
-0.197713
3.69436e-05
-0.179426
2.98142e-05
-0.16283
2.16206e-05
-0.147771
1.33445e-05
-0.134105
5.74482e-06
-0.121701
-1.10574e-06
-0.110445
-7.63369e-06
-0.10023
-1.44126e-05
-0.0909601
-2.0258e-05
-0.47315
4.06461e-05
-0.429595
3.94152e-05
-0.389817
4.20792e-05
-0.353875
4.16836e-05
-0.321141
4.27893e-05
-0.291476
4.38248e-05
-0.264522
4.49098e-05
-0.240068
4.51094e-05
-0.217861
4.34885e-05
-0.19771
3.95898e-05
-0.179423
3.3401e-05
-0.162825
2.55879e-05
-0.147766
1.7123e-05
-0.134101
9.03199e-06
-0.121697
1.88956e-06
-0.110441
-4.55354e-06
-0.100227
-1.08408e-05
-0.0909573
-1.72322e-05
-0.0825448
-2.20658e-05
-0.473158
3.79508e-05
-0.429591
3.67654e-05
-0.389817
3.93549e-05
-0.353872
3.89798e-05
-0.321139
4.01734e-05
-0.291475
4.15438e-05
-0.264521
4.33093e-05
-0.240068
4.46087e-05
-0.21786
4.43858e-05
-0.197709
4.19312e-05
-0.17942
3.69216e-05
-0.162822
2.97379e-05
-0.147762
2.13037e-05
-0.134097
1.27728e-05
-0.121693
5.05091e-06
-0.110438
-1.58344e-06
-0.100224
-7.68408e-06
-0.0909545
-1.36135e-05
-0.0825425
-1.94535e-05
-0.0749009
-2.32435e-05
-0.473165
3.53889e-05
-0.429588
3.42416e-05
-0.389817
3.67332e-05
-0.353869
3.63507e-05
-0.321138
3.75672e-05
-0.291474
3.91322e-05
-0.264521
4.14107e-05
-0.240068
4.36419e-05
-0.21786
4.47469e-05
-0.197708
4.3787e-05
-0.179418
4.01427e-05
-0.162819
3.39287e-05
-0.147758
2.58737e-05
-0.134093
1.7089e-05
-0.121689
8.69474e-06
-0.110434
1.44471e-06
-0.100221
-4.68571e-06
-0.0909516
-1.0484e-05
-0.08254
-1.60774e-05
-0.0748991
-2.12353e-05
-0.0679723
-2.40722e-05
-0.473172
3.29568e-05
-0.429584
3.18544e-05
-0.389817
3.42353e-05
-0.353866
3.38179e-05
-0.321137
3.49837e-05
-0.291473
3.66335e-05
-0.264521
3.92543e-05
-0.240069
4.22457e-05
-0.217861
4.45566e-05
-0.197708
4.51202e-05
-0.179417
4.30322e-05
-0.162817
3.80751e-05
-0.147755
3.06866e-05
-0.134089
2.18836e-05
-0.121685
1.29203e-05
-0.110431
4.86108e-06
-0.100218
-1.79681e-06
-0.0909489
-7.47464e-06
-0.0825375
-1.30433e-05
-0.0748971
-1.80418e-05
-0.067971
-2.24362e-05
-0.0616773
-2.44851e-05
-0.473179
3.06599e-05
-0.429581
2.95924e-05
-0.389817
3.1858e-05
-0.353863
3.13979e-05
-0.321135
3.2483e-05
-0.291472
3.41228e-05
-0.264522
3.69347e-05
-0.24007
4.04844e-05
-0.217863
4.38333e-05
-0.19771
4.58505e-05
-0.179418
4.53917e-05
-0.162816
4.18941e-05
-0.147752
3.55016e-05
-0.134085
2.70577e-05
-0.121681
1.77957e-05
-0.110427
8.91656e-06
-0.100214
1.35134e-06
-0.090946
-4.71501e-06
-0.082535
-1.00362e-05
-0.0748948
-1.53119e-05
-0.0679694
-1.96358e-05
-0.0616764
-2.33788e-05
-0.05597
-2.47821e-05
-0.473185
2.84871e-05
-0.429577
2.74694e-05
-0.389817
2.96091e-05
-0.35386
2.91029e-05
-0.321134
3.00695e-05
-0.291471
3.16335e-05
-0.264522
3.45036e-05
-0.240072
3.84279e-05
-0.217865
4.26132e-05
-0.197712
4.59684e-05
-0.179419
4.71668e-05
-0.162815
4.535e-05
-0.147751
4.02816e-05
-0.134082
3.25252e-05
-0.121677
2.32301e-05
-0.110422
1.36839e-05
-0.10021
5.08256e-06
-0.0909428
-1.83857e-06
-0.0825323
-7.32685e-06
-0.0748925
-1.23781e-05
-0.0679675
-1.72801e-05
-0.0616753
-2.06985e-05
-0.0559694
-2.38839e-05
-0.0507901
-2.47476e-05
-0.473192
2.64379e-05
-0.429574
2.54668e-05
-0.389817
2.74898e-05
-0.353858
2.69345e-05
-0.321133
2.77814e-05
-0.291471
2.92175e-05
-0.264523
3.20407e-05
-0.240074
3.61614e-05
-0.217868
4.09675e-05
-0.197715
4.54736e-05
-0.179421
4.82808e-05
-0.162817
4.82286e-05
-0.14775
4.47209e-05
-0.13408
3.79969e-05
-0.121674
2.90251e-05
-0.110418
1.91373e-05
-0.100206
9.61357e-06
-0.0909392
1.5148e-06
-0.0825295
-4.71228e-06
-0.0748901
-9.75016e-06
-0.0679653
-1.45545e-05
-0.0616736
-1.88901e-05
-0.0559687
-2.14474e-05
-0.0507897
-2.43112e-05
-0.0460859
-2.48928e-05
-0.473198
2.45129e-05
-0.429571
2.35905e-05
-0.389817
2.54962e-05
-0.353855
2.49041e-05
-0.321131
2.56115e-05
-0.29147
2.68949e-05
-0.264523
2.95876e-05
-0.240075
3.37577e-05
-0.21787
3.89745e-05
-0.197718
4.4419e-05
-0.179424
4.86974e-05
-0.162819
5.04662e-05
-0.147751
4.87594e-05
-0.134078
4.34367e-05
-0.121671
3.51583e-05
-0.110415
2.52133e-05
-0.100202
1.49743e-05
-0.0909353
5.66258e-06
-0.0825262
-1.75606e-06
-0.0748875
-7.27944e-06
-0.0679631
-1.19517e-05
-0.0616717
-1.64708e-05
-0.0559674
-2.01277e-05
-0.0507894
-2.16882e-05
-0.0460857
-2.44572e-05
-0.041819
-2.48206e-05
-0.473203
2.27005e-05
-0.429569
2.18338e-05
-0.389817
2.36238e-05
-0.353853
2.30012e-05
-0.32113
2.35872e-05
-0.291469
2.46925e-05
-0.264523
2.72015e-05
-0.240077
3.12928e-05
-0.217873
3.67231e-05
-0.197722
4.28664e-05
-0.179428
4.84323e-05
-0.162822
5.19682e-05
-0.147752
5.21892e-05
-0.134078
4.85286e-05
-0.121669
4.13161e-05
-0.110411
3.1675e-05
-0.100198
2.10247e-05
-0.0909311
1.07251e-05
-0.0825225
1.92662e-06
-0.0748846
-4.71329e-06
-0.0679608
-9.64499e-06
-0.0616697
-1.40606e-05
-0.0559657
-1.82097e-05
-0.0507885
-2.09354e-05
-0.0460857
-2.16947e-05
-0.0418187
-2.48717e-05
-0.0379468
-2.50268e-05
-0.473209
2.10021e-05
-0.429566
2.01901e-05
-0.389817
2.18758e-05
-0.35385
2.12281e-05
-0.321129
2.16911e-05
-0.291468
2.2624e-05
-0.264523
2.49038e-05
-0.240079
2.88261e-05
-0.217876
3.42977e-05
-0.197726
4.09099e-05
-0.179433
4.75251e-05
-0.162826
5.26977e-05
-0.147755
5.48919e-05
-0.134079
5.31725e-05
-0.121667
4.74368e-05
-0.110408
3.85078e-05
-0.100194
2.77704e-05
-0.0909267
1.66985e-05
-0.0825183
6.5959e-06
-0.0748811
-1.53433e-06
-0.0679581
-7.36193e-06
-0.0616675
-1.17834e-05
-0.0559638
-1.59803e-05
-0.0507872
-1.95692e-05
-0.0460853
-2.12502e-05
-0.0418188
-2.14107e-05
-0.0379463
-2.51925e-05
-0.0344321
-2.48679e-05
-0.473214
1.94113e-05
-0.429564
1.86548e-05
-0.389817
2.02376e-05
-0.353848
1.95813e-05
-0.321127
1.99351e-05
-0.291467
2.06944e-05
-0.264524
2.27345e-05
-0.24008
2.6409e-05
-0.217879
3.17818e-05
-0.197731
3.86368e-05
-0.179438
4.60511e-05
-0.162831
5.26604e-05
-0.147759
5.67988e-05
-0.134081
5.71755e-05
-0.121667
5.32302e-05
-0.110406
4.53901e-05
-0.100191
3.49422e-05
-0.0909224
2.34148e-05
-0.0825139
1.22198e-05
-0.0748771
2.59557e-06
-0.067955
-4.70025e-06
-0.0616651
-9.76081e-06
-0.0559618
-1.38418e-05
-0.0507854
-1.78465e-05
-0.0460844
-2.06104e-05
-0.0418189
-2.11759e-05
-0.0379465
-2.12172e-05
-0.0344315
-2.59628e-05
-0.0312428
-2.47316e-05
-0.473219
1.79244e-05
-0.429562
1.72247e-05
-0.389817
1.87115e-05
-0.353846
1.80509e-05
-0.321126
1.83093e-05
-0.291466
1.89053e-05
-0.264524
2.06956e-05
-0.240081
2.40866e-05
-0.217882
2.92406e-05
-0.197735
3.61513e-05
-0.179444
4.41011e-05
-0.162837
5.19011e-05
-0.147764
5.78482e-05
-0.134085
6.03773e-05
-0.121669
5.84945e-05
-0.110405
5.22177e-05
-0.100188
4.25108e-05
-0.0909183
3.08793e-05
-0.0825093
1.88599e-05
-0.0748727
7.82162e-06
-0.0679512
-1.13873e-06
-0.0616623
-7.54511e-06
-0.0559596
-1.19022e-05
-0.0507834
-1.57862e-05
-0.0460828
-1.94133e-05
-0.0418184
-2.10847e-05
-0.037947
-2.07322e-05
-0.0344316
-2.10289e-05
-0.0312421
-2.65364e-05
-0.0283491
-2.39012e-05
-0.473224
1.65379e-05
-0.42956
1.58916e-05
-0.389817
1.72882e-05
-0.353844
1.66335e-05
-0.321125
1.68098e-05
-0.291465
1.72601e-05
-0.264523
1.88047e-05
-0.240083
2.18819e-05
-0.217885
2.67438e-05
-0.197739
3.35328e-05
-0.179449
4.17809e-05
-0.162844
5.0491e-05
-0.147771
5.80458e-05
-0.13409
6.27011e-05
-0.121671
6.30948e-05
-0.110405
5.87366e-05
-0.100186
5.01777e-05
-0.0909146
3.88081e-05
-0.0825048
2.6288e-05
-0.074868
1.40976e-05
-0.0679469
3.49017e-06
-0.0616588
-4.61221e-06
-0.0559571
-1.00817e-05
-0.0507814
-1.39602e-05
-0.0460808
-1.77601e-05
-0.0418171
-2.07955e-05
-0.037947
-2.11712e-05
-0.0344322
-2.01203e-05
-0.0312419
-2.12585e-05
-0.0283484
-2.74285e-05
-0.0257229
-2.28824e-05
-0.473228
1.52413e-05
-0.429558
1.46548e-05
-0.389817
1.59646e-05
-0.353842
1.53224e-05
-0.321124
1.54278e-05
-0.291464
1.57469e-05
-0.264523
1.70623e-05
-0.240084
1.98168e-05
-0.217887
2.43273e-05
-0.197743
3.08777e-05
-0.179455
3.919e-05
-0.16285
4.85342e-05
-0.147777
5.7429e-05
-0.134096
6.40862e-05
-0.121676
6.6817e-05
-0.110407
6.46651e-05
-0.100185
5.77288e-05
-0.0909116
4.71402e-05
-0.0825005
3.45102e-05
-0.0748631
2.14523e-05
-0.0679422
9.38011e-06
-0.0616547
-6.02429e-07
-0.055954
-7.74001e-06
-0.0507791
-1.23503e-05
-0.0460789
-1.59382e-05
-0.0418153
-1.95754e-05
-0.0379461
-2.16273e-05
-0.0344327
-2.06261e-05
-0.0312425
-1.95188e-05
-0.0283479
-2.16263e-05
-0.0257223
-2.7869e-05
-0.02334
-2.10867e-05
-0.473233
1.40346e-05
-0.429556
1.35006e-05
-0.389817
1.4735e-05
-0.35384
1.41102e-05
-0.321123
1.41595e-05
-0.291463
1.43645e-05
-0.264523
1.54656e-05
-0.240084
1.79056e-05
-0.217889
2.20317e-05
-0.197747
2.82379e-05
-0.179461
3.64411e-05
-0.162857
4.61321e-05
-0.147785
5.60796e-05
-0.134103
6.45198e-05
-0.121681
6.95801e-05
-0.11041
6.98727e-05
-0.100185
6.49883e-05
-0.0909094
5.5617e-05
-0.0824966
4.32532e-05
-0.0748583
2.9643e-05
-0.0679372
1.63712e-05
-0.0616501
4.67731e-06
-0.0559501
-4.47872e-06
-0.0507763
-1.05228e-05
-0.0460767
-1.44656e-05
-0.0418133
-1.79664e-05
-0.0379444
-2.13193e-05
-0.0344323
-2.2101e-05
-0.0312433
-1.9921e-05
-0.0283483
-1.91004e-05
-0.0257215
-2.24564e-05
-0.0233396
-2.83791e-05
-0.0211764
-1.8974e-05
-0.473236
1.2913e-05
-0.429554
1.24312e-05
-0.389818
1.359e-05
-0.353838
1.29927e-05
-0.321121
1.29937e-05
-0.291462
1.31026e-05
-0.264523
1.40101e-05
-0.240085
1.61466e-05
-0.217891
1.98813e-05
-0.197751
2.56773e-05
-0.179466
3.36117e-05
-0.162864
4.34177e-05
-0.147793
5.40909e-05
-0.134111
6.40499e-05
-0.121688
7.13048e-05
-0.110415
7.41326e-05
-0.100187
7.16011e-05
-0.0909084
6.39296e-05
-0.0824934
5.23571e-05
-0.0748537
3.86558e-05
-0.067932
2.44988e-05
-0.061645
1.13076e-05
-0.0559456
1.75967e-07
-0.0507728
-7.97872e-06
-0.0460743
-1.29995e-05
-0.0418113
-1.6482e-05
-0.0379424
-1.99647e-05
-0.0344309
-2.26715e-05
-0.0312434
-2.18853e-05
-0.0283493
-1.88643e-05
-0.0257216
-1.89859e-05
-0.0233386
-2.32802e-05
-0.0211764
-2.82161e-05
-0.0192136
-1.6123e-05
-0.47324
1.18712e-05
-0.429553
1.14389e-05
-0.389818
1.25276e-05
-0.353837
1.19576e-05
-0.32112
1.19272e-05
-0.291461
1.19542e-05
-0.264522
1.26899e-05
-0.240086
1.45429e-05
-0.217893
1.78859e-05
-0.197754
2.32351e-05
-0.179471
3.07854e-05
-0.162871
4.04841e-05
-0.147801
5.16024e-05
-0.134119
6.2742e-05
-0.121696
7.19857e-05
-0.110421
7.73402e-05
-0.10019
7.74313e-05
-0.0909087
7.19224e-05
-0.082491
6.16501e-05
-0.0748496
4.82501e-05
-0.0679269
3.35128e-05
-0.0616396
1.90901e-05
-0.0559406
6.20123e-06
-0.0507686
-4.12469e-06
-0.0460712
-1.11468e-05
-0.0418091
-1.52126e-05
-0.0379404
-1.85214e-05
-0.0344289
-2.20101e-05
-0.0312424
-2.37515e-05
-0.0283499
-2.13735e-05
-0.0257226
-1.79711e-05
-0.0233384
-1.91658e-05
-0.0211753
-2.44054e-05
-0.0192141
-2.78737e-05
-0.0174318
-1.28933e-05
-0.473243
1.09075e-05
-0.429551
1.05203e-05
-0.389818
1.15431e-05
-0.353835
1.10038e-05
-0.321119
1.09454e-05
-0.29146
1.09109e-05
-0.264522
1.14947e-05
-0.240086
1.30883e-05
-0.217895
1.60543e-05
-0.197757
2.09366e-05
-0.179476
2.80271e-05
-0.162878
3.74434e-05
-0.147809
4.87198e-05
-0.134129
6.07297e-05
-0.121705
7.16493e-05
-0.110428
7.942e-05
-0.100195
8.22311e-05
-0.0909105
7.92298e-05
-0.0824899
7.07455e-05
-0.0748461
5.81604e-05
-0.067922
4.33107e-05
-0.0616341
2.80328e-05
-0.0559351
1.36734e-05
-0.0507636
1.29623e-06
-0.0460672
-8.05406e-06
-0.0418063
-1.39289e-05
-0.0379383
-1.72816e-05
-0.0344268
-2.0625e-05
-0.0312406
-2.38596e-05
-0.0283494
-2.4166e-05
-0.0257236
-2.02343e-05
-0.0233392
-1.70511e-05
-0.0211748
-1.97326e-05
-0.0192131
-2.52706e-05
-0.0174328
-2.67179e-05
-0.0158149
-9.21717e-06
-0.473247
1.00112e-05
-0.42955
9.67163e-06
-0.389818
1.06302e-05
-0.353834
1.01239e-05
-0.321118
1.00472e-05
-0.291459
9.96045e-06
-0.264521
1.04177e-05
-0.240086
1.17755e-05
-0.217896
1.43865e-05
-0.19776
1.88011e-05
-0.17948
2.53777e-05
-0.162884
3.43836e-05
-0.147818
4.55771e-05
-0.134138
5.81173e-05
-0.121714
7.04024e-05
-0.110437
8.03391e-05
-0.100201
8.58967e-05
-0.0909139
8.56819e-05
-0.0824901
7.94841e-05
-0.0748436
6.82613e-05
-0.0679175
5.37584e-05
-0.0616287
3.79128e-05
-0.0559294
2.23268e-05
-0.0507582
8.19607e-06
-0.0460625
-3.44467e-06
-0.0418027
-1.16637e-05
-0.0379359
-1.64057e-05
-0.0344248
-1.92656e-05
-0.0312384
-2.27874e-05
-0.0283478
-2.55349e-05
-0.0257237
-2.41958e-05
-0.0233405
-1.90949e-05
-0.0211753
-1.65662e-05
-0.0192122
-2.05024e-05
-0.017432
-2.61859e-05
-0.0158166
-2.5168e-05
-0.0143473
-5.51491e-06
-0.47325
9.18181e-06
-0.429549
8.88413e-06
-0.389818
9.78726e-06
-0.353832
9.31264e-06
-0.321117
9.22329e-06
-0.291458
9.09768e-06
-0.264521
9.44398e-06
-0.240086
1.05963e-05
-0.217897
1.28772e-05
-0.197763
1.68384e-05
-0.179484
2.28762e-05
-0.16289
3.13705e-05
-0.147825
4.229e-05
-0.134147
5.50556e-05
-0.121725
6.83359e-05
-0.110446
8.01687e-05
-0.100209
8.83227e-05
-0.090919
9.10365e-05
-0.0824919
8.74824e-05
-0.0748423
7.81473e-05
-0.0679138
6.4503e-05
-0.0616235
4.85181e-05
-0.0559236
3.2077e-05
-0.0507524
1.65649e-05
-0.0460572
2.92588e-06
-0.0417983
-7.8355e-06
-0.0379327
-1.48428e-05
-0.0344226
-1.85919e-05
-0.0312364
-2.12756e-05
-0.0283456
-2.49748e-05
-0.0257225
-2.67154e-05
-0.0233411
-2.3489e-05
-0.0211767
-1.76298e-05
-0.0192124
-1.62972e-05
-0.0174309
-2.15931e-05
-0.0158161
-2.65644e-05
-0.0143495
-2.2883e-05
-0.0130152
-2.16273e-06
-0.473252
8.41974e-06
-0.429548
8.15591e-06
-0.389818
9.00367e-06
-0.353831
8.56635e-06
-0.321117
8.4686e-06
-0.291457
8.31434e-06
-0.26452
8.56843e-06
-0.240087
9.53631e-06
-0.217898
1.15207e-05
-0.197765
1.50482e-05
-0.179488
2.05438e-05
-0.162896
2.84644e-05
-0.147833
3.89484e-05
-0.134157
5.16815e-05
-0.121735
6.56015e-05
-0.110457
7.89601e-05
-0.100218
8.95185e-05
-0.0909258
9.51485e-05
-0.0824954
9.45621e-05
-0.0748424
8.76188e-05
-0.067911
7.54158e-05
-0.0616187
5.97915e-05
-0.0559179
4.28109e-05
-0.0507464
2.61234e-05
-0.0460514
1.07856e-05
-0.0417932
-2.22415e-06
-0.0379286
-1.19307e-05
-0.0344198
-1.76539e-05
-0.0312344
-2.06138e-05
-0.0283436
-2.3362e-05
-0.0257204
-2.70854e-05
-0.0233404
-2.75176e-05
-0.0211777
-2.25698e-05
-0.0192137
-1.6508e-05
-0.0174307
-1.65701e-05
-0.0158149
-2.26704e-05
-0.0143495
-2.66589e-05
-0.0130178
-2.03276e-05
-0.0118065
4.97528e-07
-0.473255
7.70976e-06
-0.429547
7.48824e-06
-0.389818
8.27912e-06
-0.35383
7.87573e-06
-0.321116
7.77776e-06
-0.291456
7.60242e-06
-0.26452
7.78032e-06
-0.240087
8.58849e-06
-0.217899
1.03021e-05
-0.197767
1.34303e-05
-0.179491
1.83924e-05
-0.162901
2.57067e-05
-0.14784
3.56413e-05
-0.134166
4.81102e-05
-0.121746
6.23505e-05
-0.110468
7.68556e-05
-0.100229
8.94928e-05
-0.0909342
9.79616e-05
-0.0825007
0.000100452
-0.0748441
9.6305e-05
-0.0679095
8.60746e-05
-0.0616147
7.13609e-05
-0.0559124
5.42432e-05
-0.0507403
3.66711e-05
-0.0460454
1.99984e-05
-0.0417876
5.19156e-06
-0.0379238
-7.01927e-06
-0.0344162
-1.55872e-05
-0.031232
-2.00819e-05
-0.0283416
-2.25471e-05
-0.0257182
-2.55641e-05
-0.0233385
-2.89904e-05
-0.0211776
-2.76347e-05
-0.0192151
-2.10681e-05
-0.0174317
-1.5386e-05
-0.0158143
-1.71629e-05
-0.0143484
-2.38234e-05
-0.0130184
-2.6029e-05
-0.0118094
-1.74887e-05
-0.0107101
1.98464e-06
-0.473257
7.06137e-06
-0.429546
6.86619e-06
-0.389818
7.61357e-06
-0.353829
7.23902e-06
-0.321115
7.14204e-06
-0.291455
6.95679e-06
-0.264519
7.0712e-06
-0.240087
7.7416e-06
-0.217899
9.215e-06
-0.197768
1.19708e-05
-0.179494
1.64286e-05
-0.162906
2.31234e-05
-0.147847
3.24332e-05
-0.134175
4.44593e-05
-0.121756
5.87163e-05
-0.11048
7.40026e-05
-0.100241
8.83476e-05
-0.0909442
9.94091e-05
-0.0825077
0.000105041
-0.0748476
0.000103967
-0.0679094
9.62588e-05
-0.0616117
8.30548e-05
-0.0559073
6.63293e-05
-0.0507343
4.82227e-05
-0.0460391
3.04146e-05
-0.0417815
1.40338e-05
-0.0379183
-2.71325e-07
-0.0344117
-1.1595e-05
-0.0312287
-1.88834e-05
-0.0283395
-2.2239e-05
-0.0257162
-2.45472e-05
-0.0233363
-2.78229e-05
-0.021176
-3.05693e-05
-0.0192155
-2.73764e-05
-0.0174332
-1.96893e-05
-0.0158149
-1.48933e-05
-0.0143473
-1.81883e-05
-0.0130174
-2.46791e-05
-0.0118105
-2.49415e-05
-0.0107129
-1.47718e-05
-0.00971501
1.95291e-06
-0.473259
6.45908e-06
-0.429545
6.29905e-06
-0.389818
6.9934e-06
-0.353828
6.65632e-06
-0.321114
6.5584e-06
-0.291454
6.36715e-06
-0.264518
6.43389e-06
-0.240086
6.98523e-06
-0.2179
8.24677e-06
-0.19777
1.06654e-05
-0.179497
1.46432e-05
-0.16291
2.07348e-05
-0.147853
2.93717e-05
-0.134183
4.08223e-05
-0.121767
5.4845e-05
-0.110492
7.05448e-05
-0.100253
8.62176e-05
-0.0909554
9.95539e-05
-0.0825165
0.000108202
-0.074853
0.000110412
-0.067911
0.000105586
-0.0616099
9.44625e-05
-0.055903
7.86891e-05
-0.0507285
6.04707e-05
-0.0460327
4.17818e-05
-0.0417752
2.40389e-05
-0.0379125
8.09879e-06
-0.0344064
-5.42883e-06
-0.0312246
-1.57279e-05
-0.0283366
-2.17247e-05
-0.0257143
-2.41906e-05
-0.0233342
-2.66041e-05
-0.0211738
-3.00437e-05
-0.0192143
-3.17043e-05
-0.0174341
-2.64325e-05
-0.0158164
-1.80389e-05
-0.0143475
-1.46686e-05
-0.0130161
-1.94611e-05
-0.0118099
-2.53622e-05
-0.0107147
-2.3092e-05
-0.00971739
-1.24461e-05
-0.00881189
-2.24468e-07
-0.473262
5.90502e-06
-0.429545
5.7719e-06
-0.389819
6.42688e-06
-0.353827
6.11448e-06
-0.321114
6.02661e-06
-0.291454
5.83038e-06
-0.264518
5.85773e-06
-0.240086
6.31116e-06
-0.2179
7.38607e-06
-0.197771
9.50108e-06
-0.1795
1.30358e-05
-0.162914
1.85383e-05
-0.147859
2.64949e-05
-0.134191
3.7272e-05
-0.121777
5.08593e-05
-0.110504
6.66487e-05
-0.100265
8.32355e-05
-0.0909677
9.84872e-05
-0.0825269
0.000109925
-0.0748602
0.000115425
-0.0679145
0.000113834
-0.0616096
0.000105293
-0.0558996
9.11255e-05
-0.0507231
7.33366e-05
-0.0460263
5.41325e-05
-0.0417687
3.52522e-05
-0.0379062
1.78225e-05
-0.0344008
2.46438e-06
-0.0312196
-1.03829e-05
-0.0283329
-1.95397e-05
-0.0257118
-2.42226e-05
-0.0233324
-2.60672e-05
-0.0211716
-2.88019e-05
-0.0192122
-3.21433e-05
-0.0174334
-3.23472e-05
-0.0158177
-2.52931e-05
-0.0143488
-1.68838e-05
-0.0130156
-1.51825e-05
-0.0118083
-2.09737e-05
-0.0107145
-2.5448e-05
-0.00971984
-2.07052e-05
-0.00881317
-1.12706e-05
-0.00799418
-4.68007e-06
-0.473263
5.39716e-06
-0.429544
5.28725e-06
-0.389819
5.89994e-06
-0.353826
5.62101e-06
-0.321113
5.53387e-06
-0.291453
5.34448e-06
-0.264517
5.33802e-06
-0.240086
5.70713e-06
-0.2179
6.62309e-06
-0.197772
8.46617e-06
-0.179502
1.15953e-05
-0.162917
1.6542e-05
-0.147864
2.3812e-05
-0.134198
3.38714e-05
-0.121786
4.68611e-05
-0.110515
6.24644e-05
-0.100278
7.95808e-05
-0.0909807
9.63223e-05
-0.0825387
0.000110255
-0.0748692
0.000118948
-0.0679198
0.000120759
-0.061611
0.000115256
-0.0558975
0.000103214
-0.0507184
8.64524e-05
-0.0460202
6.71681e-05
-0.041762
4.74019e-05
-0.0378996
2.86346e-05
-0.0343947
1.16724e-05
-0.0312142
-3.03797e-06
-0.0283283
-1.49101e-05
-0.0257085
-2.28276e-05
-0.0233302
-2.63809e-05
-0.0211698
-2.78988e-05
-0.01921
-3.10138e-05
-0.0174316
-3.39735e-05
-0.0158176
-3.23915e-05
-0.0143503
-2.36596e-05
-0.0130166
-1.58088e-05
-0.0118073
-1.61209e-05
-0.010713
-2.24864e-05
-0.00972041
-2.487e-05
-0.00881594
-1.79573e-05
-0.00799364
-1.18448e-05
-0.00725259
-1.06303e-05
-0.473265
4.92817e-06
-0.429543
4.84276e-06
-0.389819
5.41449e-06
-0.353825
5.1627e-06
-0.321113
5.0867e-06
-0.291452
4.89762e-06
-0.264517
4.87185e-06
-0.240086
5.16732e-06
-0.217901
5.94399e-06
-0.197773
7.54957e-06
-0.179503
1.03097e-05
-0.162921
1.47378e-05
-0.147869
2.13435e-05
-0.134205
3.06457e-05
-0.121795
4.29435e-05
-0.110526
5.81233e-05
-0.100291
7.54209e-05
-0.0909944
9.32295e-05
-0.0825516
0.000109258
-0.0748799
0.000120956
-0.067927
0.000126201
-0.0616142
0.000124015
-0.055897
0.000114672
-0.0507148
9.95479e-05
-0.0460145
8.07805e-05
-0.0417553
6.05136e-05
-0.0378928
4.06082e-05
-0.0343882
2.22156e-05
-0.0312083
5.85199e-06
-0.0283232
-8.13266e-06
-0.0257043
-1.91292e-05
-0.0233273
-2.57706e-05
-0.0211679
-2.83146e-05
-0.0192081
-2.97782e-05
-0.0174294
-3.33111e-05
-0.0158161
-3.54551e-05
-0.0143508
-3.19361e-05
-0.0130182
-2.21634e-05
-0.0118076
-1.55551e-05
-0.0107113
-1.77515e-05
-0.00971921
-2.36455e-05
-0.00881735
-2.33837e-05
-0.00799606
-1.56049e-05
-0.00724996
-1.45771e-05
-0.00657724
-1.26212e-05
-0.473267
4.4981e-06
-0.429543
4.43231e-06
-0.389819
4.96892e-06
-0.353825
4.7414e-06
-0.321112
4.67254e-06
-0.291452
4.49436e-06
-0.264516
4.44703e-06
-0.240086
4.68736e-06
-0.217901
5.34146e-06
-0.197774
6.73569e-06
-0.179505
9.16819e-06
-0.162923
1.31166e-05
-0.147873
1.90886e-05
-0.134212
2.76342e-05
-0.121804
3.91526e-05
-0.110537
5.37515e-05
-0.100304
7.09141e-05
-0.0910084
8.93852e-05
-0.0825655
0.000107084
-0.0748921
0.000121457
-0.0679362
0.000130086
-0.0616194
0.000131405
-0.0558981
0.000125162
-0.0507124
0.00011228
-0.0460095
9.45788e-05
-0.0417488
7.4306e-05
-0.0378858
5.35196e-05
-0.0343814
3.37903e-05
-0.0312021
1.59277e-05
-0.0283176
1.90464e-07
-0.0256995
-1.30063e-05
-0.0233236
-2.28256e-05
-0.0211654
-2.82231e-05
-0.0192064
-3.00318e-05
-0.0174275
-3.16787e-05
-0.0158139
-3.54723e-05
-0.0143498
-3.64352e-05
-0.0130192
-3.08778e-05
-0.0118092
-2.05375e-05
-0.010711
-1.57774e-05
-0.0097173
-1.95593e-05
-0.00881691
-2.40304e-05
-0.00799805
-2.13733e-05
-0.00725119
-1.44113e-05
-0.00657641
-1.54122e-05
-0.0059482
-8.34299e-06
-0.473268
4.10444e-06
-0.429542
4.05563e-06
-0.389819
4.55678e-06
-0.353824
4.35516e-06
-0.321112
4.29288e-06
-0.291451
4.12313e-06
-0.264516
4.06681e-06
-0.240086
4.25431e-06
-0.217901
4.80972e-06
-0.197775
6.01572e-06
-0.179507
8.15287e-06
-0.162926
1.16685e-05
-0.147877
1.70433e-05
-0.134217
2.48478e-05
-0.121812
3.5553e-05
-0.110548
4.94205e-05
-0.100317
6.62189e-05
-0.0910224
8.49628e-05
-0.08258
0.000103896
-0.0749056
0.000120559
-0.0679471
0.000132355
-0.0616266
0.000137262
-0.0559011
0.000134406
-0.0507115
0.000124249
-0.0460055
0.000108283
-0.0417428
8.8587e-05
-0.0378789
6.73724e-05
-0.0343744
4.64954e-05
-0.0311955
2.72088e-05
-0.0283116
9.98251e-06
-0.0256942
-5.05453e-06
-0.0233191
-1.73648e-05
-0.0211621
-2.61727e-05
-0.0192043
-3.03706e-05
-0.0174259
-3.16505e-05
-0.0158119
-3.37104e-05
-0.0143478
-3.75312e-05
-0.0130189
-3.68225e-05
-0.0118106
-2.95005e-05
-0.0107121
-1.95291e-05
-0.00971621
-1.69254e-05
-0.00881516
-2.12819e-05
-0.00799851
-2.35257e-05
-0.00725328
-1.92398e-05
-0.00657601
-1.48625e-05
-0.00595448
-9.22028e-06
-0.00536476
-2.1984e-06
-0.47327
3.74046e-06
-0.429542
3.71074e-06
-0.389819
4.17834e-06
-0.353823
3.99841e-06
-0.321111
3.94548e-06
-0.291451
3.78442e-06
-0.264516
3.71969e-06
-0.240085
3.87006e-06
-0.217901
4.3342e-06
-0.197775
5.38269e-06
-0.179508
7.2542e-06
-0.162928
1.03743e-05
-0.147881
1.52014e-05
-0.134223
2.22915e-05
-0.121819
3.21724e-05
-0.110557
4.52258e-05
-0.100329
6.14331e-05
-0.0910363
8.01491e-05
-0.0825949
9.98719e-05
-0.0749201
0.000118394
-0.0679596
0.000133053
-0.0616357
0.00014147
-0.0559061
0.000142232
-0.0507122
0.000135205
-0.0460028
0.000121505
-0.0417376
0.000103014
-0.0378722
8.18547e-05
-0.0343672
6.01444e-05
-0.0311885
3.94945e-05
-0.0283052
2.08004e-05
-0.0256885
4.24148e-06
-0.0233142
-1.00654e-05
-0.0211581
-2.14382e-05
-0.0192015
-2.89838e-05
-0.0174241
-3.20981e-05
-0.0158104
-3.31913e-05
-0.0143458
-3.5727e-05
-0.0130172
-3.91638e-05
-0.0118109
-3.65812e-05
-0.0107137
-2.78271e-05
-0.00971672
-1.8923e-05
-0.0088136
-1.83421e-05
-0.00799732
-2.23803e-05
-0.00725448
-2.22672e-05
-0.00657788
-1.73471e-05
-0.00595705
-1.23246e-05
-0.00537446
4.82639e-07
-0.00483131
3.51045e-06
-0.473271
3.41019e-06
-0.429542
3.39125e-06
-0.389819
3.83129e-06
-0.353823
3.67103e-06
-0.321111
3.62516e-06
-0.29145
3.47595e-06
-0.264515
3.40539e-06
-0.240085
3.52264e-06
-0.217901
3.9157e-06
-0.197776
4.81943e-06
-0.179509
6.46391e-06
-0.16293
9.22399e-06
-0.147884
1.35431e-05
-0.134227
1.99666e-05
-0.121826
2.90303e-05
-0.110566
4.12181e-05
-0.10034
5.66886e-05
-0.09105
7.50659e-05
-0.08261
9.52154e-05
-0.0749353
0.000115126
-0.0679734
0.000132271
-0.0616467
0.000144013
-0.055913
0.000148447
-0.0507149
0.000144879
-0.0460015
0.000133908
-0.0417333
0.00011718
-0.0378659
9.67321e-05
-0.03436
7.4665e-05
-0.0311812
5.28939e-05
-0.0282984
3.27459e-05
-0.0256824
1.47488e-05
-0.0233088
-1.08157e-06
-0.0211535
-1.45841e-05
-0.0191979
-2.4957e-05
-0.0174217
-3.14334e-05
-0.015809
-3.3596e-05
-0.0143442
-3.47884e-05
-0.0130152
-3.77969e-05
-0.0118096
-4.04037e-05
-0.0107146
-3.57414e-05
-0.00971818
-2.63815e-05
-0.00881344
-1.91733e-05
-0.00799563
-2.00335e-05
-0.00725397
-2.28475e-05
-0.00657985
-2.02691e-05
-0.00596028
-1.40823e-05
-0.00538075
-6.06079e-06
-0.00484094
1.00514e-05
-0.00434786
7.91822e-06
-0.473272
3.10447e-06
-0.429541
3.10138e-06
-0.389819
3.50939e-06
-0.353822
3.37106e-06
-0.321111
3.33154e-06
-0.29145
3.19256e-06
-0.264515
3.12115e-06
-0.240085
3.21091e-06
-0.217901
3.5409e-06
-0.197776
4.32612e-06
-0.17951
5.76159e-06
-0.162932
8.20922e-06
-0.147887
1.20602e-05
-0.134232
1.78546e-05
-0.121832
2.61392e-05
-0.110575
3.74364e-05
-0.100351
5.20635e-05
-0.0910632
6.98823e-05
-0.082625
9.00651e-05
-0.0749511
0.00011096
-0.0679884
0.000130131
-0.0616593
0.000144916
-0.055922
0.000152979
-0.0507195
0.000153065
-0.0460019
0.000145248
-0.0417301
0.000130776
-0.0378603
0.000111592
-0.034353
8.97611e-05
-0.0311738
6.72203e-05
-0.0282913
4.57077e-05
-0.0256759
2.62134e-05
-0.0233031
8.94548e-06
-0.0211485
-6.14331e-06
-0.0191937
-1.8832e-05
-0.0174186
-2.81598e-05
-0.015807
-3.33297e-05
-0.014343
-3.48207e-05
-0.0130135
-3.63993e-05
-0.0118078
-3.96221e-05
-0.0107139
-4.09909e-05
-0.00971946
-3.45409e-05
-0.00881457
-2.5165e-05
-0.00799491
-1.98052e-05
-0.00725238
-2.1476e-05
-0.00658027
-2.23412e-05
-0.00596415
-1.63436e-05
-0.00538683
-7.97546e-06
-0.00484849
1.45337e-06
-0.0043557
1.79047e-05
-0.00391178
1.09816e-05
-0.473273
2.82638e-06
-0.429541
2.83271e-06
-0.38982
3.21649e-06
-0.353822
3.09275e-06
-0.32111
3.0628e-06
-0.291449
2.93372e-06
-0.264515
2.86176e-06
-0.240085
2.93139e-06
-0.217901
3.20765e-06
-0.197776
3.88706e-06
-0.179511
5.14718e-06
-0.162933
7.30517e-06
-0.147889
1.07449e-05
-0.134236
1.5951e-05
-0.121838
2.34855e-05
-0.110582
3.39109e-05
-0.100361
4.76229e-05
-0.0910758
6.47079e-05
-0.0826397
8.46256e-05
-0.0749671
0.000106041
-0.0680043
0.000126825
-0.0616735
0.000144255
-0.0559329