/*--------------------------------*- C++ -*----------------------------------*\
  =========                 |
  \\      /  F ield         | OpenFOAM: The Open Source CFD Toolbox
   \\    /   O peration     | Website:  https://openfoam.org
    \\  /    A nd           | Version:  dev
     \\/     M anipulation  |
\*---------------------------------------------------------------------------*/
FoamFile
{
    version     2.0;
    format      ascii;
    class       volVectorField;
    location    "175";
    object      U;
}
// * * * * * * * * * * * * * * * * * * * * * * * * * * * * * * * * * * * * * //

dimensions      [0 1 -1 0 0 0 0];

internalField   nonuniform List<vector> 
29380
(
(51.0257 0.0268452 0)
(51.0264 0.0272829 0)
(51.0802 0.00365287 0)
(51.0266 0.0276966 0)
(51.078 0.00379636 0)
(51.0678 0.0190571 0)
(51.0269 0.0282884 0)
(51.0769 0.00401854 0)
(51.0669 0.0193841 0)
(51.0953 0.00565472 0)
(51.0273 0.0289087 0)
(51.0756 0.00441846 0)
(51.0661 0.0196617 0)
(51.0928 0.00606586 0)
(51.0946 0.0124737 0)
(51.0277 0.0295509 0)
(51.0745 0.0049068 0)
(51.0653 0.02007 0)
(51.0915 0.00649747 0)
(51.0928 0.0127816 0)
(51.1059 0.00555421 0)
(51.0282 0.0301819 0)
(51.0735 0.00546525 0)
(51.0646 0.0205272 0)
(51.09 0.00711632 0)
(51.0915 0.0130669 0)
(51.1034 0.00606457 0)
(51.1087 0.0076318 0)
(51.0288 0.0307864 0)
(51.0726 0.00606516 0)
(51.064 0.0210201 0)
(51.0888 0.0078178 0)
(51.0901 0.0134967 0)
(51.102 0.00655303 0)
(51.1065 0.00798984 0)
(51.1135 0.00431058 0)
(51.0295 0.0313517 0)
(51.0717 0.00668891 0)
(51.0635 0.0215211 0)
(51.0876 0.00858582 0)
(51.0888 0.0140032 0)
(51.1004 0.00722624 0)
(51.1049 0.00834376 0)
(51.111 0.00482893 0)
(51.1162 0.00422838 0)
(51.0301 0.0318704 0)
(51.0709 0.00732208 0)
(51.0631 0.0220125 0)
(51.0866 0.00938725 0)
(51.0877 0.0145682 0)
(51.099 0.00798968 0)
(51.1032 0.00886487 0)
(51.1094 0.00531394 0)
(51.1138 0.00463973 0)
(51.1187 0.00263242 0)
(51.0309 0.0323385 0)
(51.0701 0.00795412 0)
(51.0628 0.0224795 0)
(51.0856 0.0102006 0)
(51.0868 0.0151642 0)
(51.0977 0.00883153 0)
(51.1018 0.0094911 0)
(51.1077 0.00598525 0)
(51.1122 0.00504354 0)
(51.1162 0.00312901 0)
(51.1207 0.00182885 0)
(51.0316 0.0327548 0)
(51.0694 0.00857779 0)
(51.0625 0.0229124 0)
(51.0848 0.0110046 0)
(51.0859 0.0157666 0)
(51.0966 0.00972034 0)
(51.1005 0.0102085 0)
(51.1062 0.00677086 0)
(51.1104 0.00562283 0)
(51.1146 0.00358854 0)
(51.1183 0.00226788 0)
(51.1223 0.000975937 0)
(51.0324 0.0331198 0)
(51.0688 0.0091879 0)
(51.0624 0.0233046 0)
(51.0841 0.0117851 0)
(51.0852 0.0163549 0)
(51.0956 0.010631 0)
(51.0993 0.0109922 0)
(51.1048 0.00766644 0)
(51.1089 0.00633326 0)
(51.1128 0.00422231 0)
(51.1167 0.0026854 0)
(51.1199 0.00144513 0)
(51.1238 0.000102989 0)
(51.0332 0.0334352 0)
(51.0681 0.00978154 0)
(51.0622 0.0236533 0)
(51.0834 0.0125285 0)
(51.0846 0.0169097 0)
(51.0948 0.011537 0)
(51.0983 0.0118162 0)
(51.1036 0.00864888 0)
(51.1074 0.00717457 0)
(51.1112 0.00499241 0)
(51.1149 0.00326025 0)
(51.1183 0.00187513 0)
(51.1215 0.000542598 0)
(51.125 -0.000440283 0)
(51.034 0.0337033 0)
(51.0675 0.0103565 0)
(51.0621 0.0239572 0)
(51.0828 0.0132287 0)
(51.0841 0.0174178 0)
(51.0941 0.0124141 0)
(51.0975 0.0126543 0)
(51.1025 0.00969611 0)
(51.1061 0.00813341 0)
(51.1097 0.00590992 0)
(51.1133 0.00397821 0)
(51.1165 0.00244261 0)
(51.1199 0.000950269 0)
(51.1227 -4.73622e-06 0)
(51.1261 -0.00115781 0)
(51.0348 0.0339268 0)
(51.067 0.0109121 0)
(51.0621 0.0242182 0)
(51.0822 0.0138788 0)
(51.0837 0.0178675 0)
(51.0936 0.0132417 0)
(51.0968 0.0134789 0)
(51.1017 0.01078 0)
(51.105 0.00919147 0)
(51.1083 0.006971 0)
(51.1117 0.00485901 0)
(51.1149 0.00314934 0)
(51.1181 0.00146781 0)
(51.1212 0.000398848 0)
(51.1239 -0.000751177 0)
(51.127 -0.00154491 0)
(51.0357 0.034108 0)
(51.0664 0.0114472 0)
(51.062 0.0244379 0)
(51.0817 0.0144792 0)
(51.0833 0.0182542 0)
(51.0931 0.014002 0)
(51.0963 0.0142635 0)
(51.101 0.0118708 0)
(51.1041 0.010325 0)
(51.1071 0.00816521 0)
(51.1103 0.00591137 0)
(51.1133 0.004025 0)
(51.1165 0.00211715 0)
(51.1194 0.00088051 0)
(51.1223 -0.000361249 0)
(51.1248 -0.00117256 0)
(51.1276 -0.0020582 0)
(51.0365 0.0342493 0)
(51.0659 0.0119617 0)
(51.062 0.0246202 0)
(51.0812 0.0150279 0)
(51.083 0.0185737 0)
(51.0928 0.0146837 0)
(51.096 0.0149856 0)
(51.1005 0.0129383 0)
(51.1033 0.0115044 0)
(51.1061 0.00947352 0)
(51.109 0.00713567 0)
(51.1118 0.00509309 0)
(51.1149 0.00293686 0)
(51.1178 0.00148032 0)
(51.1206 7.66829e-05 0)
(51.1233 -0.000794334 0)
(51.1256 -0.00173441 0)
(51.1279 -0.00232268 0)
(51.0373 0.034353 0)
(51.0654 0.0124548 0)
(51.062 0.0247677 0)
(51.0807 0.0155289 0)
(51.0827 0.0188286 0)
(51.0925 0.0152784 0)
(51.0957 0.0156255 0)
(51.1002 0.0139508 0)
(51.1029 0.0126944 0)
(51.1054 0.0108691 0)
(51.1078 0.00852177 0)
(51.1104 0.00636578 0)
(51.1133 0.00396425 0)
(51.1162 0.00224164 0)
(51.119 0.000615375 0)
(51.1216 -0.000397982 0)
(51.1241 -0.00137461 0)
(51.1262 -0.00206274 0)
(51.1279 -0.00264119 0)
(51.0381 0.0344212 0)
(51.0649 0.0129263 0)
(51.062 0.0248848 0)
(51.0802 0.0159828 0)
(51.0825 0.0190203 0)
(51.0922 0.0157841 0)
(51.0956 0.0161706 0)
(51.1001 0.0148818 0)
(51.1026 0.0138611 0)
(51.1048 0.0123195 0)
(51.1069 0.010049 0)
(51.1091 0.00784547 0)
(51.1117 0.0052268 0)
(51.1145 0.00321679 0)
(51.1174 0.00130052 0)
(51.12 8.1824e-05 0)
(51.1224 -0.00101755 0)
(51.1247 -0.00173095 0)
(51.1264 -0.00245019 0)
(51.1274 -0.00279298 0)
(51.0389 0.034456 0)
(51.0645 0.0133756 0)
(51.062 0.024974 0)
(51.0798 0.016395 0)
(51.0823 0.0191561 0)
(51.092 0.0162014 0)
(51.0955 0.0166126 0)
(51.1001 0.0157083 0)
(51.1025 0.0149671 0)
(51.1045 0.0137839 0)
(51.1063 0.011687 0)
(51.1081 0.0095216 0)
(51.1103 0.00674013 0)
(51.1129 0.00444647 0)
(51.1157 0.00219598 0)
(51.1184 0.000685504 0)
(51.1209 -0.000592492 0)
(51.1231 -0.00141834 0)
(51.125 -0.00215632 0)
(51.1263 -0.00268113 0)
(51.1266 -0.0029518 0)
(51.0396 0.0344591 0)
(51.064 0.0138021 0)
(51.062 0.0250393 0)
(51.0794 0.0167671 0)
(51.0821 0.0192407 0)
(51.0919 0.0165357 0)
(51.0955 0.0169499 0)
(51.1002 0.0164146 0)
(51.1026 0.0159804 0)
(51.1045 0.0152226 0)
(51.1059 0.0133996 0)
(51.1073 0.0113713 0)
(51.1091 0.00850632 0)
(51.1113 0.00596276 0)
(51.114 0.00335781 0)
(51.1167 0.00148649 0)
(51.1193 -6.9368e-05 0)
(51.1215 -0.0010458 0)
(51.1234 -0.00188963 0)
(51.1251 -0.00243664 0)
(51.1257 -0.00291344 0)
(51.1254 -0.00300719 0)
(51.0404 0.0344323 0)
(51.0636 0.0142053 0)
(51.062 0.0250829 0)
(51.079 0.0171046 0)
(51.0818 0.0192829 0)
(51.0917 0.0167934 0)
(51.0956 0.0171847 0)
(51.1005 0.0169907 0)
(51.1029 0.0168734 0)
(51.1047 0.0165913 0)
(51.1058 0.0151393 0)
(51.1067 0.0133605 0)
(51.108 0.0105142 0)
(51.1098 0.00778208 0)
(51.1122 0.00483213 0)
(51.1149 0.00255249 0)
(51.1176 0.00062808 0)
(51.1199 -0.000602834 0)
(51.1218 -0.00156427 0)
(51.1236 -0.00222887 0)
(51.1248 -0.00272478 0)
(51.1247 -0.00304258 0)
(51.1237 -0.0030547 0)
(51.0411 0.0343772 0)
(51.0632 0.0145847 0)
(51.062 0.025108 0)
(51.0786 0.0174091 0)
(51.0816 0.019288 0)
(51.0916 0.0169835 0)
(51.0956 0.0173242 0)
(51.1007 0.0174343 0)
(51.1034 0.0176261 0)
(51.1052 0.0178509 0)
(51.106 0.0168588 0)
(51.1065 0.015448 0)
(51.1073 0.0127396 0)
(51.1085 0.00990716 0)
(51.1105 0.00665201 0)
(51.113 0.00394689 0)
(51.1157 0.00157923 0)
(51.1182 -1.54659e-05 0)
(51.1202 -0.00119113 0)
(51.1219 -0.00195312 0)
(51.1234 -0.00258357 0)
(51.124 -0.00290996 0)
(51.1232 -0.00315725 0)
(51.1214 -0.00303789 0)
(51.0418 0.0342954 0)
(51.0628 0.01494 0)
(51.062 0.0251163 0)
(51.0782 0.0176852 0)
(51.0814 0.0192646 0)
(51.0914 0.0171147 0)
(51.0957 0.0173773 0)
(51.1011 0.0177479 0)
(51.1039 0.0182261 0)
(51.1058 0.0189674 0)
(51.1066 0.018505 0)
(51.1067 0.017578 0)
(51.1069 0.0151445 0)
(51.1075 0.0123286 0)
(51.109 0.00883678 0)
(51.1111 0.00571759 0)
(51.1137 0.00286194 0)
(51.1163 0.000801777 0)
(51.1186 -0.00070743 0)
(51.1203 -0.00164443 0)
(51.1218 -0.00236133 0)
(51.1228 -0.00284717 0)
(51.1227 -0.00307589 0)
(51.1211 -0.0032063 0)
(51.1186 -0.00301399 0)
(51.0425 0.0341884 0)
(51.0625 0.0152705 0)
(51.062 0.0251103 0)
(51.0778 0.0179343 0)
(51.0812 0.0192172 0)
(51.0913 0.0171966 0)
(51.0958 0.0173556 0)
(51.1014 0.0179397 0)
(51.1046 0.0186696 0)
(51.1067 0.019915 0)
(51.1074 0.0200296 0)
(51.1072 0.0196937 0)
(51.1068 0.0176805 0)
(51.1068 0.015021 0)
(51.1076 0.0113943 0)
(51.1092 0.00789996 0)
(51.1115 0.00454168 0)
(51.1142 0.00194299 0)
(51.1167 -2.74153e-05 0)
(51.1186 -0.0012567 0)
(51.1201 -0.00210882 0)
(51.1213 -0.00268942 0)
(51.1219 -0.00309128 0)
(51.1209 -0.00316717 0)
(51.1183 -0.00323592 0)
(51.1155 -0.00296147 0)
(51.0431 0.034058 0)
(51.0621 0.0155763 0)
(51.062 0.0250911 0)
(51.0774 0.0181601 0)
(51.081 0.0191529 0)
(51.0911 0.0172374 0)
(51.0959 0.0172704 0)
(51.1018 0.0180208 0)
(51.1052 0.0189586 0)
(51.1076 0.0206776 0)
(51.1084 0.0213909 0)
(51.108 0.0217318 0)
(51.1072 0.0202824 0)
(51.1065 0.0179414 0)
(51.1065 0.0143165 0)
(51.1075 0.0105226 0)
(51.1094 0.0066693 0)
(51.1119 0.00348979 0)
(51.1145 0.000954343 0)
(51.1168 -0.000714406 0)
(51.1184 -0.00180363 0)
(51.1196 -0.00249743 0)
(51.1205 -0.00300631 0)
(51.1204 -0.00326345 0)
(51.1183 -0.00322434 0)
(51.115 -0.00323183 0)
(51.1119 -0.00291031 0)
(51.0437 0.0339056 0)
(51.0618 0.015857 0)
(51.062 0.0250604 0)
(51.0771 0.0183634 0)
(51.0808 0.0190749 0)
(51.0909 0.0172455 0)
(51.0959 0.0171341 0)
(51.1022 0.0180048 0)
(51.1059 0.0191024 0)
(51.1087 0.0212484 0)
(51.1096 0.0225554 0)
(51.1092 0.0236331 0)
(51.108 0.0228812 0)
(51.1066 0.0210326 0)
(51.1058 0.0175762 0)
(51.106 0.0135977 0)
(51.1073 0.00929156 0)
(51.1095 0.00550823 0)
(51.1121 0.00233847 0)
(51.1146 9.50538e-05 0)
(51.1166 -0.00138721 0)
(51.1178 -0.00226622 0)
(51.1187 -0.00287496 0)
(51.1193 -0.00326367 0)
(51.1183 -0.00339077 0)
(51.115 -0.00322495 0)
(51.1112 -0.00323658 0)
(51.1078 -0.00284104 0)
(51.0443 0.0337329 0)
(51.0615 0.0161128 0)
(51.062 0.0250189 0)
(51.0767 0.0185471 0)
(51.0806 0.0189887 0)
(51.0907 0.0172278 0)
(51.0959 0.0169576 0)
(51.1025 0.0179063 0)
(51.1066 0.0191132 0)
(51.1098 0.0216288 0)
(51.1111 0.0235022 0)
(51.1107 0.0253463 0)
(51.1092 0.0254031 0)
(51.1072 0.02422 0)
(51.1056 0.021124 0)
(51.1048 0.0171194 0)
(51.1054 0.0124439 0)
(51.107 0.00806449 0)
(51.1094 0.00420598 0)
(51.1121 0.00128817 0)
(51.1144 -0.000750004 0)
(51.116 -0.00196362 0)
(51.1169 -0.00270846 0)
(51.1176 -0.00320757 0)
(51.1176 -0.00348625 0)
(51.1153 -0.00344762 0)
(51.1109 -0.00321354 0)
(51.107 -0.0032339 0)
(51.1032 -0.00276331 0)
(51.0449 0.033541 0)
(51.0613 0.0163437 0)
(51.062 0.0249676 0)
(51.0764 0.0187116 0)
(51.0804 0.0188963 0)
(51.0906 0.0171908 0)
(51.0959 0.0167516 0)
(51.1028 0.0177404 0)
(51.1073 0.0190079 0)
(51.1109 0.0218286 0)
(51.1126 0.0242203 0)
(51.1125 0.0268295 0)
(51.1108 0.0277758 0)
(51.1083 0.02742 0)
(51.1058 0.024892 0)
(51.1041 0.0210581 0)
(51.1037 0.016144 0)
(51.1046 0.0112126 0)
(51.1066 0.00663972 0)
(51.1092 0.00296241 0)
(51.1118 0.000238397 0)
(51.1139 -0.00149274 0)
(51.115 -0.00250178 0)
(51.1156 -0.00310354 0)
(51.1161 -0.00351947 0)
(51.1152 -0.0036428 0)
(51.1116 -0.00345974 0)
(51.1063 -0.00317715 0)
(51.1026 -0.00325343 0)
(51.0979 -0.0026568 0)
(51.0454 0.033331 0)
(51.061 0.01655 0)
(51.062 0.0249068 0)
(51.0761 0.018859 0)
(51.0802 0.0188013 0)
(51.0904 0.0171396 0)
(51.0959 0.0165252 0)
(51.1031 0.0175214 0)
(51.108 0.0188034 0)
(51.112 0.0218622 0)
(51.1142 0.02471 0)
(51.1144 0.0280545 0)
(51.1128 0.0299356 0)
(51.1099 0.030546 0)
(51.1067 0.028795 0)
(51.1039 0.0253569 0)
(51.1024 0.0203864 0)
(51.1024 0.014996 0)
(51.1037 0.00971313 0)
(51.1061 0.00522035 0)
(51.1088 0.00169167 0)
(51.1113 -0.000715349 0)
(51.1129 -0.00218393 0)
(51.1136 -0.00297824 0)
(51.114 -0.00348705 0)
(51.1141 -0.00378842 0)
(51.1121 -0.0037422 0)
(51.107 -0.00341502 0)
(51.1012 -0.0031593 0)
(51.0978 -0.00327413 0)
(51.0917 -0.00252215 0)
(51.0459 0.0331037 0)
(51.0608 0.0167319 0)
(51.062 0.0248374 0)
(51.0758 0.0189895 0)
(51.08 0.0187049 0)
(51.0902 0.0170788 0)
(51.0959 0.0162867 0)
(51.1033 0.0172627 0)
(51.1086 0.0185187 0)
(51.1131 0.0217493 0)
(51.1158 0.0249804 0)
(51.1165 0.0290056 0)
(51.1151 0.0318303 0)
(51.112 0.0335108 0)
(51.1081 0.0327321 0)
(51.1043 0.0299357 0)
(51.1016 0.025138 0)
(51.1004 0.0194371 0)
(51.1009 0.0134916 0)
(51.1028 0.00815042 0)
(51.1054 0.00373069 0)
(51.1082 0.000495286 0)
(51.1104 -0.00161659 0)
(51.1114 -0.00279274 0)
(51.1118 -0.0034295 0)
(51.112 -0.00384569 0)
(51.1116 -0.00401093 0)
(51.1081 -0.0037654 0)
(51.1017 -0.00335035 0)
(51.0958 -0.00315356 0)
(51.0925 -0.00330628 0)
(51.0843 -0.0023517 0)
(51.0463 0.0328601 0)
(51.0605 0.0168899 0)
(51.062 0.0247596 0)
(51.0755 0.0191048 0)
(51.0798 0.0186093 0)
(51.09 0.0170118 0)
(51.0958 0.0160426 0)
(51.1035 0.0169764 0)
(51.1091 0.0181708 0)
(51.1142 0.0215105 0)
(51.1174 0.0250481 0)
(51.1186 0.0296804 0)
(51.1176 0.0334222 0)
(51.1145 0.0362358 0)
(51.1101 0.0366017 0)
(51.1053 0.0346963 0)
(51.1014 0.0303336 0)
(51.0989 0.0245293 0)
(51.0983 0.0180255 0)
(51.0994 0.0118401 0)
(51.1017 0.00646201 0)
(51.1045 0.00228344 0)
(51.1073 -0.000661268 0)
(51.109 -0.0024222 0)
(51.1095 -0.00334975 0)
(51.1096 -0.00385742 0)
(51.1098 -0.00418294 0)
(51.1084 -0.00416729 0)
(51.1031 -0.00373233 0)
(51.0957 -0.00327411 0)
(51.0899 -0.00317785 0)
(51.0865 -0.00332716 0)
(51.0757 -0.00214431 0)
(51.0468 0.0326012 0)
(51.0603 0.0170245 0)
(51.062 0.024674 0)
(51.0753 0.019205 0)
(51.0796 0.0185149 0)
(51.0898 0.0169416 0)
(51.0958 0.0157987 0)
(51.1036 0.0166729 0)
(51.1096 0.0177769 0)
(51.1152 0.0211686 0)
(51.119 0.0249345 0)
(51.1208 0.0300871 0)
(51.1203 0.034689 0)
(51.1174 0.0386558 0)
(51.1127 0.0402979 0)
(51.1071 0.0395191 0)
(51.1019 0.035879 0)
(51.098 0.0302343 0)
(51.0961 0.0233411 0)
(51.0961 0.0163642 0)
(51.0978 0.00999022 0)
(51.1005 0.00476834 0)
(51.1034 0.000849983 0)
(51.1059 -0.00172748 0)
(51.1071 -0.00315242 0)
(51.1071 -0.00386104 0)
(51.1071 -0.00427186 0)
(51.1071 -0.00448276 0)
(51.1042 -0.004257 0)
(51.0971 -0.00364946 0)
(51.089 -0.00321121 0)
(51.0836 -0.00322176 0)
(51.0796 -0.00334063 0)
(51.0654 -0.00189903 0)
(51.0472 0.0323283 0)
(51.0602 0.0171369 0)
(51.0621 0.0245808 0)
(51.075 0.0192914 0)
(51.0794 0.0184233 0)
(51.0896 0.0168702 0)
(51.0957 0.0155592 0)
(51.1038 0.0163611 0)
(51.11 0.0173514 0)
(51.1161 0.0207447 0)
(51.1205 0.0246644 0)
(51.123 0.0302436 0)
(51.1231 0.0356241 0)
(51.1206 0.0407216 0)
(51.1158 0.0437265 0)
(51.1095 0.0442837 0)
(51.1031 0.0416605 0)
(51.0978 0.0364792 0)
(51.0943 0.0294298 0)
(51.0931 0.0217772 0)
(51.0939 0.0144127 0)
(51.0961 0.00807363 0)
(51.099 0.0030554 0)
(51.102 -0.000510528 0)
(51.1041 -0.00270892 0)
(51.1046 -0.00380413 0)
(51.1042 -0.00434608 0)
(51.1043 -0.00467728 0)
(51.1036 -0.00473726 0)
(51.0991 -0.00426806 0)
(51.0902 -0.00353761 0)
(51.0819 -0.00316485 0)
(51.0767 -0.00328869 0)
(51.0716 -0.00332356 0)
(51.0534 -0.00161817 0)
(51.0476 0.0320425 0)
(51.06 0.0172279 0)
(51.0621 0.0244805 0)
(51.0748 0.0193641 0)
(51.0793 0.0183341 0)
(51.0894 0.0167996 0)
(51.0956 0.0153279 0)
(51.1039 0.0160483 0)
(51.1104 0.0169079 0)
(51.1169 0.0202595 0)
(51.1219 0.0242636 0)
(51.1251 0.0301737 0)
(51.126 0.0362341 0)
(51.124 0.042403 0)
(51.1193 0.0468063 0)
(51.1126 0.0488644 0)
(51.1052 0.0475392 0)
(51.0983 0.0431555 0)
(51.0932 0.0362492 0)
(51.0905 0.0281083 0)
(51.0901 0.0198126 0)
(51.0915 0.0123134 0)
(51.0942 0.00609304 0)
(51.0974 0.00138554 0)
(51.1002 -0.0017962 0)
(51.1016 -0.00359 0)
(51.1015 -0.00439867 0)
(51.101 -0.00481794 0)
(51.1011 -0.00506609 0)
(51.0995 -0.00491946 0)
(51.0927 -0.00421459 0)
(51.0824 -0.00340878 0)
(51.0742 -0.00315444 0)
(51.0691 -0.0033612 0)
(51.0623 -0.00327697 0)
(51.0391 -0.0013087 0)
(51.0479 0.0317449 0)
(51.0598 0.0172986 0)
(51.0621 0.0243732 0)
(51.0746 0.019424 0)
(51.0791 0.0182483 0)
(51.0893 0.0167307 0)
(51.0955 0.0151071 0)
(51.1039 0.0157403 0)
(51.1107 0.0164569 0)
(51.1176 0.0197312 0)
(51.1232 0.0237579 0)
(51.1272 0.029906 0)
(51.1288 0.0365374 0)
(51.1275 0.0436878 0)
(51.1232 0.0494762 0)
(51.1164 0.0531482 0)
(51.1081 0.0533742 0)
(51.0998 0.0501326 0)
(51.0929 0.0437182 0)
(51.0884 0.0353527 0)
(51.0865 0.0262506 0)
(51.087 0.0175927 0)
(51.0891 0.0100899 0)
(51.0921 0.00412122 0)
(51.0954 -0.00023295 0)
(51.0979 -0.00297609 0)
(51.0986 -0.00438398 0)
(51.098 -0.00494566 0)
(51.0975 -0.00528776 0)
(51.0975 -0.00541708 0)
(51.0943 -0.00503171 0)
(51.0853 -0.00409232 0)
(51.0739 -0.00329348 0)
(51.066 -0.00316607 0)
(51.0608 -0.00343737 0)
(51.0511 -0.00317829 0)
(51.0228 -0.00100349 0)
(51.0483 0.0314361 0)
(51.0597 0.01735 0)
(51.0621 0.0242593 0)
(51.0744 0.0194712 0)
(51.0789 0.0181652 0)
(51.0891 0.0166646 0)
(51.0954 0.014899 0)
(51.104 0.015442 0)
(51.111 0.0160081 0)
(51.1183 0.0191762 0)
(51.1244 0.0231717 0)
(51.1291 0.0294707 0)
(51.1316 0.0365605 0)
(51.1311 0.0445803 0)
(51.1274 0.0516959 0)
(51.1207 0.0570373 0)
(51.1118 0.059019 0)
(51.1021 0.0572515 0)
(51.0935 0.0517141 0)
(51.087 0.0434613 0)
(51.0834 0.0337615 0)
(51.0825 0.0240043 0)
(51.0838 0.0151663 0)
(51.0864 0.0078299 0)
(51.0898 0.00216778 0)
(51.093 -0.0017587 0)
(51.095 -0.00405303 0)
(51.095 -0.00508847 0)
(51.094 -0.00547057 0)
(51.0937 -0.00574276 0)
(51.0933 -0.00572638 0)
(51.088 -0.00504972 0)
(51.0765 -0.00394434 0)
(51.0645 -0.00318757 0)
(51.0573 -0.00322397 0)
(51.0513 -0.00349031 0)
(51.0375 -0.00304309 0)
(51.0051 -0.000709725 0)
(51.0486 0.0311165 0)
(51.0596 0.0173829 0)
(51.0621 0.0241391 0)
(51.0742 0.0195063 0)
(51.0788 0.0180852 0)
(51.0889 0.0166016 0)
(51.0953 0.0147046 0)
(51.104 0.0151567 0)
(51.1112 0.0155683 0)
(51.1189 0.0186081 0)
(51.1255 0.0225274 0)
(51.131 0.0288988 0)
(51.1343 0.0363357 0)
(51.1348 0.045099 0)
(51.1318 0.0534463 0)
(51.1254 0.0604558 0)
(51.1162 0.0643403 0)
(51.1055 0.0643489 0)
(51.0951 0.0600871 0)
(51.0866 0.0523424 0)
(51.0809 0.0423396 0)
(51.0784 0.0316225 0)
(51.0785 0.0214362 0)
(51.0805 0.0126367 0)
(51.0836 0.00555108 0)
(51.0871 0.000286637 0)
(51.0902 -0.00318468 0)
(51.0915 -0.00501223 0)
(51.0908 -0.00573214 0)
(51.0896 -0.0059751 0)
(51.0896 -0.00619948 0)
(51.0881 -0.00595599 0)
(51.0802 -0.00500382 0)
(51.0666 -0.00375445 0)
(51.0544 -0.00313757 0)
(51.0478 -0.00329136 0)
(51.0402 -0.00352698 0)
(51.0215 -0.00284073 0)
(50.9869 -0.000505851 0)
(51.0489 0.0307865 0)
(51.0594 0.0173982 0)
(51.0621 0.024013 0)
(51.074 0.0195295 0)
(51.0787 0.0180076 0)
(51.0888 0.0165419 0)
(51.0952 0.0145246 0)
(51.104 0.014887 0)
(51.1114 0.0151437 0)
(51.1194 0.0180388 0)
(51.1265 0.0218451 0)
(51.1327 0.0282198 0)
(51.1368 0.0358987 0)
(51.1383 0.0452729 0)
(51.1363 0.0547282 0)
(51.1305 0.0633515 0)
(51.1213 0.069221 0)
(51.1098 0.0712558 0)
(51.0978 0.0686569 0)
(51.0871 0.0618583 0)
(51.0792 0.0519287 0)
(51.0747 0.0404844 0)
(51.0733 0.0290117 0)
(51.0743 0.0186716 0)
(51.077 0.0100433 0)
(51.0805 0.00331699 0)
(51.0842 -0.00151068 0)
(51.0869 -0.00448835 0)
(51.0874 -0.00587193 0)
(51.086 -0.0063174 0)
(51.0849 -0.00649258 0)
(51.085 -0.00661367 0)
(51.0818 -0.00612226 0)
(51.071 -0.00486544 0)
(51.0554 -0.00359503 0)
(51.0437 -0.003109 0)
(51.0375 -0.00340379 0)
(51.0274 -0.00349208 0)
(51.0032 -0.00264148 0)
(50.9684 -0.000349548 0)
(51.0491 0.0304468 0)
(51.0593 0.0173965 0)
(51.0622 0.0238812 0)
(51.0738 0.0195417 0)
(51.0785 0.0179323 0)
(51.0886 0.0164852 0)
(51.0951 0.0143589 0)
(51.104 0.0146345 0)
(51.1116 0.0147384 0)
(51.1199 0.0174775 0)
(51.1274 0.021142 0)
(51.1342 0.0274613 0)
(51.1392 0.0352857 0)
(51.1417 0.0451388 0)
(51.1408 0.0555591 0)
(51.1358 0.0656971 0)
(51.1269 0.0735675 0)
(51.115 0.0778153 0)
(51.1016 0.077235 0)
(51.0889 0.0718381 0)
(51.0786 0.0624249 0)
(51.0717 0.0505822 0)
(51.0684 0.0379786 0)
(51.0682 0.0260777 0)
(51.0701 0.0157774 0)
(51.0734 0.00745698 0)
(51.0772 0.00114831 0)
(51.0808 -0.00319556 0)
(51.083 -0.00567798 0)
(51.0826 -0.006628 0)
(51.0807 -0.00689044 0)
(51.0799 -0.00699905 0)
(51.0796 -0.00700476 0)
(51.074 -0.00617449 0)
(51.0599 -0.00470512 0)
(51.0431 -0.00342505 0)
(51.0323 -0.00316569 0)
(51.0259 -0.0034801 0)
(51.0128 -0.00344836 0)
(50.9825 -0.00238386 0)
(50.9501 -0.000359872 0)
(51.0494 0.0300984 0)
(51.0592 0.0173791 0)
(51.0622 0.0237441 0)
(51.0737 0.0195432 0)
(51.0784 0.017859 0)
(51.0885 0.0164316 0)
(51.095 0.0142074 0)
(51.104 0.0143997 0)
(51.1117 0.0143553 0)
(51.1203 0.0169321 0)
(51.1282 0.020433 0)
(51.1356 0.0266481 0)
(51.1415 0.0345322 0)
(51.145 0.0447375 0)
(51.1452 0.0559696 0)
(51.1413 0.0674881 0)
(51.133 0.0773137 0)
(51.1209 0.0838882 0)
(51.1065 0.085629 0)
(51.0919 0.0820814 0)
(51.0791 0.0736743 0)
(51.0696 0.0618503 0)
(51.064 0.0483763 0)
(51.0622 0.0349799 0)
(51.0631 0.0229166 0)
(51.0658 0.0128365 0)
(51.0695 0.0049142 0)
(51.0735 -0.000923701 0)
(51.0769 -0.00477043 0)
(51.0783 -0.00673292 0)
(51.077 -0.00731729 0)
(51.0749 -0.00744108 0)
(51.0745 -0.00751644 0)
(51.0731 -0.00730145 0)
(51.0644 -0.00617358 0)
(51.0472 -0.00447705 0)
(51.0297 -0.00334212 0)
(51.02 -0.00322173 0)
(51.0135 -0.0036025 0)
(50.9962 -0.0032967 0)
(50.9582 -0.00219039 0)
(50.9343 -0.000460218 0)
(51.0496 0.0297416 0)
(51.0591 0.0173471 0)
(51.0622 0.0236017 0)
(51.0735 0.0195349 0)
(51.0783 0.0177877 0)
(51.0883 0.0163809 0)
(51.0949 0.0140696 0)
(51.104 0.014183 0)
(51.1118 0.0139963 0)
(51.1207 0.0164078 0)
(51.1289 0.0197303 0)
(51.1369 0.0258021 0)
(51.1436 0.0336715 0)
(51.1481 0.0441115 0)
(51.1495 0.0560003 0)
(51.1468 0.0687396 0)
(51.1394 0.0804208 0)
(51.1276 0.0893616 0)
(51.1125 0.0936554 0)
(51.0962 0.0923731 0)
(51.0809 0.085487 0)
(51.0686 0.0741719 0)
(51.0604 0.0601916 0)
(51.0565 0.045473 0)
(51.056 0.0316207 0)
(51.0579 0.0196323 0)
(51.0613 0.0099044 0)
(51.0654 0.00245339 0)
(51.0694 -0.00289428 0)
(51.0725 -0.00620325 0)
(51.0729 -0.00767804 0)
(51.0707 -0.00793921 0)
(51.0687 -0.00800956 0)
(51.0683 -0.00798711 0)
(51.0652 -0.0075539 0)
(51.0528 -0.00604789 0)
(51.0325 -0.00428725 0)
(51.0152 -0.00326487 0)
(51.0074 -0.00338282 0)
(51.0002 -0.00364121 0)
(50.9756 -0.00314858 0)
(50.9308 -0.00197551 0)
(50.9261 -0.000789422 0)
(51.0498 0.0293771 0)
(51.0591 0.0173009 0)
(51.0622 0.0234542 0)
(51.0734 0.0195169 0)
(51.0782 0.0177181 0)
(51.0882 0.016333 0)
(51.0948 0.013945 0)
(51.1039 0.0139842 0)
(51.1119 0.0136622 0)
(51.121 0.0159089 0)
(51.1296 0.0190434 0)
(51.1381 0.024942 0)
(51.1455 0.0327341 0)
(51.1511 0.0433029 0)
(51.1537 0.0556973 0)
(51.1522 0.0694836 0)
(51.146 0.0828769 0)
(51.1347 0.094152 0)
(51.1194 0.101152 0)
(51.1017 0.102496 0)
(51.0842 0.097643 0)
(51.069 0.087379 0)
(51.0579 0.0733492 0)
(51.0513 0.0575967 0)
(51.049 0.0420283 0)
(51.0498 0.0280248 0)
(51.0527 0.0163009 0)
(51.0566 0.00703649 0)
(51.0609 9.02042e-05 0)
(51.0649 -0.00472914 0)
(51.0673 -0.00750462 0)
(51.0667 -0.00849946 0)
(51.0638 -0.0085408 0)
(51.0619 -0.00855438 0)
(51.0612 -0.00844558 0)
(51.0555 -0.00767132 0)
(51.0388 -0.005902 0)
(51.016 -0.0040615 0)
(50.9999 -0.00332051 0)
(50.995 -0.00351198 0)
(50.9843 -0.00370357 0)
(50.9492 -0.00286498 0)
(50.9043 -0.00192898 0)
(50.9262 -0.00131385 0)
(51.05 0.0290045 0)
(51.059 0.0172415 0)
(51.0622 0.0233015 0)
(51.0733 0.0194898 0)
(51.0781 0.0176502 0)
(51.0881 0.0162879 0)
(51.0947 0.013833 0)
(51.1039 0.0138031 0)
(51.112 0.0133535 0)
(51.1212 0.015438 0)
(51.1301 0.0183798 0)
(51.1391 0.0240832 0)
(51.1472 0.0317469 0)
(51.1538 0.0423516 0)
(51.1576 0.0551098 0)
(51.1575 0.069764 0)
(51.1526 0.0846938 0)
(51.1423 0.0982074 0)
(51.127 0.107984 0)
(51.1085 0.112241 0)
(51.0889 0.109902 0)
(51.0709 0.101264 0)
(51.0566 0.0877205 0)
(51.0471 0.0713316 0)
(51.0423 0.0542391 0)
(51.0416 0.0381977 0)
(51.0437 0.024301 0)
(51.0473 0.0130077 0)
(51.0516 0.00426288 0)
(51.0561 -0.00214123 0)
(51.0599 -0.00643108 0)
(51.0614 -0.00864646 0)
(51.0597 -0.00924593 0)
(51.0562 -0.00909871 0)
(51.0544 -0.00911534 0)
(51.0529 -0.0088122 0)
(51.0435 -0.00773588 0)
(51.0221 -0.00564753 0)
(50.9977 -0.00394031 0)
(50.9853 -0.00339181 0)
(50.9822 -0.00372662 0)
(50.9628 -0.00360427 0)
(50.9187 -0.00262538 0)
(50.887 -0.00199564 0)
(50.8686 -0.00179884 0)
(51.0502 0.0286243 0)
(51.0589 0.0171684 0)
(51.0622 0.023144 0)
(51.0732 0.0194537 0)
(51.078 0.0175837 0)
(51.088 0.0162454 0)
(51.0946 0.0137332 0)
(51.1038 0.0136392 0)
(51.112 0.0130704 0)
(51.1214 0.014997 0)
(51.1306 0.0177447 0)
(51.14 0.0232379 0)
(51.1488 0.0307328 0)
(51.1563 0.0412943 0)
(51.1613 0.054287 0)
(51.1627 0.0696327 0)
(51.1592 0.0859036 0)
(51.1501 0.101507 0)
(51.1354 0.114048 0)
(51.1163 0.121419 0)
(51.0951 0.122022 0)
(51.0744 0.115586 0)
(51.0568 0.103123 0)
(51.0439 0.0865922 0)
(51.0363 0.068288 0)
(51.0335 0.0502996 0)
(51.0343 0.0341175 0)
(51.0375 0.0205613 0)
(51.0417 0.00979766 0)
(51.0464 0.00161985 0)
(51.0509 -0.0042434 0)
(51.0543 -0.00796229 0)
(51.0548 -0.00966302 0)
(51.0518 -0.00989635 0)
(51.0479 -0.00966064 0)
(51.0461 -0.00963214 0)
(51.0428 -0.00913604 0)
(51.0287 -0.00764539 0)
(51.0026 -0.00542618 0)
(50.9791 -0.00382926 0)
(50.9718 -0.00361193 0)
(50.9663 -0.00381993 0)
(50.9349 -0.00347246 0)
(50.8885 -0.00238436 0)
(50.8746 -0.00223284 0)
(50.6503 -0.00146763 0)
(51.0504 0.028237 0)
(51.0589 0.0170824 0)
(51.0623 0.0229821 0)
(51.0731 0.0194094 0)
(51.078 0.0175187 0)
(51.0879 0.0162051 0)
(51.0945 0.0136448 0)
(51.1038 0.013492 0)
(51.112 0.0128124 0)
(51.1216 0.014587 0)
(51.1311 0.0171421 0)
(51.1409 0.0224157 0)
(51.1502 0.029711 0)
(51.1586 0.0401636 0)
(51.1648 0.0532765 0)
(51.1676 0.0691459 0)
(51.1657 0.0865534 0)
(51.158 0.104058 0)
(51.1442 0.119277 0)
(51.1251 0.129869 0)
(51.1026 0.133766 0)
(51.0795 0.130084 0)
(51.0586 0.11933 0)
(51.0421 0.103236 0)
(51.0313 0.0841466 0)
(51.0258 0.0644255 0)
(51.0249 0.0459491 0)
(51.0272 0.0299334 0)
(51.0312 0.0168772 0)
(51.0359 0.00672106 0)
(51.0409 -0.000894167 0)
(51.0453 -0.00617444 0)
(51.0479 -0.00934359 0)
(51.0472 -0.0105348 0)
(51.0429 -0.0105029 0)
(51.0386 -0.0101892 0)
(51.0367 -0.0101426 0)
(51.0306 -0.0093157 0)
(51.0107 -0.00750764 0)
(50.9812 -0.00515062 0)
(50.9618 -0.00388909 0)
(50.9581 -0.00380062 0)
(50.9446 -0.00387336 0)
(50.9036 -0.00324343 0)
(50.8575 -0.00234571 0)
(50.7417 -0.00182744 0)
(50.3219 -0.000677276 0)
(51.0505 0.0278437 0)
(51.0588 0.0169847 0)
(51.0623 0.022816 0)
(51.073 0.0193579 0)
(51.0779 0.0174547 0)
(51.0878 0.016167 0)
(51.0944 0.0135669 0)
(51.1038 0.013361 0)
(51.1121 0.0125789 0)
(51.1218 0.0142084 0)
(51.1314 0.0165751 0)
(51.1416 0.0216241 0)
(51.1515 0.028697 0)
(51.1607 0.0389877 0)
(51.168 0.0521221 0)
(51.1722 0.0683608 0)
(51.1719 0.0867004 0)
(51.1659 0.10589 0)
(51.1534 0.123638 0)
(51.1347 0.137467 0)
(51.1114 0.144914 0)
(51.0862 0.14449 0)
(51.0622 0.136089 0)
(51.042 0.12107 0)
(51.0274 0.101718 0)
(51.0188 0.0805985 0)
(51.0156 0.0599422 0)
(51.0166 0.0413591 0)
(51.0201 0.0257416 0)
(51.0248 0.0133154 0)
(51.0299 0.00377997 0)
(51.035 -0.00324155 0)
(51.0391 -0.00794743 0)
(51.0409 -0.0105502 0)
(51.0385 -0.0113 0)
(51.0329 -0.0110402 0)
(51.0285 -0.0107318 0)
(51.026 -0.0105639 0)
(51.0155 -0.0094163 0)
(50.9895 -0.00723944 0)
(50.9598 -0.00499482 0)
(50.9459 -0.00398948 0)
(50.9413 -0.00400547 0)
(50.9181 -0.00378747 0)
(50.8672 -0.00304023 0)
(50.7609 -0.00224655 0)
(50.4487 -0.000545832 0)
(49.9389 9.04501e-05 0)
(51.0506 0.0274439 0)
(51.0588 0.0168765 0)
(51.0623 0.0226461 0)
(51.0729 0.0192997 0)
(51.0778 0.017392 0)
(51.0877 0.0161305 0)
(51.0943 0.0134988 0)
(51.1037 0.0132449 0)
(51.1121 0.0123693 0)
(51.1219 0.0138612 0)
(51.1318 0.0160452 0)
(51.1423 0.020869 0)
(51.1527 0.0277036 0)
(51.1626 0.0377906 0)
(51.1709 0.0508632 0)
(51.1765 0.0673327 0)
(51.1779 0.0864081 0)
(51.1736 0.107053 0)
(51.1627 0.127131 0)
(51.1449 0.144127 0)
(51.1214 0.155279 0)
(51.0946 0.158537 0)
(51.0676 0.153117 0)
(51.0437 0.13986 0)
(51.0251 0.120852 0)
(51.0128 0.0987746 0)
(51.0068 0.0761756 0)
(51.0058 0.0550401 0)
(51.0085 0.0366609 0)
(51.013 0.0216391 0)
(51.0183 0.00989812 0)
(51.0237 0.00100979 0)
(51.0287 -0.00543143 0)
(51.0324 -0.00953264 0)
(51.0328 -0.0116085 0)
(51.0285 -0.0119407 0)
(51.0218 -0.0115596 0)
(51.0176 -0.0112335 0)
(51.0132 -0.0109271 0)
(50.997 -0.00934735 0)
(50.9664 -0.00698766 0)
(50.9395 -0.00488842 0)
(50.9294 -0.00418229 0)
(50.9208 -0.00410716 0)
(50.8863 -0.00366594 0)
(50.7852 -0.00272705 0)
(50.5073 -0.00141648 0)
(50.0662 0.000807201 0)
(49.533 0.000738962 0)
(51.0508 0.0270365 0)
(51.0587 0.0167607 0)
(51.0623 0.0224721 0)
(51.0729 0.0192354 0)
(51.0778 0.0173302 0)
(51.0876 0.0160957 0)
(51.0943 0.0134396 0)
(51.1037 0.0131432 0)
(51.1121 0.0121822 0)
(51.122 0.013545 0)
(51.1321 0.0155534 0)
(51.1429 0.020154 0)
(51.1537 0.026741 0)
(51.1643 0.0365925 0)
(51.1736 0.0495345 0)
(51.1806 0.0661137 0)
(51.1836 0.0857418 0)
(51.1812 0.107609 0)
(51.172 0.129784 0)
(51.1555 0.149802 0)
(51.1323 0.164709 0)
(51.1044 0.171972 0)
(51.0749 0.170117 0)
(51.0473 0.159337 0)
(51.0245 0.141355 0)
(51.0082 0.118849 0)
(50.9987 0.0946478 0)
(50.9952 0.0711025 0)
(50.9964 0.0498839 0)
(51.0005 0.0319814 0)
(51.0058 0.017675 0)
(51.0115 0.00666209 0)
(51.0172 -0.00159776 0)
(51.022 -0.00743183 0)
(51.0249 -0.0109466 0)
(51.0236 -0.0124955 0)
(51.0172 -0.0124934 0)
(51.0098 -0.0120442 0)
(51.0054 -0.0117238 0)
(50.9978 -0.0111478 0)
(50.9757 -0.00921033 0)
(50.9432 -0.00672986 0)
(50.9194 -0.00490106 0)
(50.9111 -0.00436187 0)
(50.8979 -0.00417069 0)
(50.816 -0.00333613 0)
(50.5667 -0.00187971 0)
(50.1409 -0.000298867 0)
(49.6424 0.00199819 0)
(49.1223 0.00121608 0)
(51.0509 0.0266114 0)
(51.0587 0.0166374 0)
(51.0623 0.022295 0)
(51.0728 0.0191647 0)
(51.0777 0.0172694 0)
(51.0875 0.0160624 0)
(51.0942 0.0133885 0)
(51.1036 0.013055 0)
(51.1121 0.0120168 0)
(51.1221 0.0132586 0)
(51.1323 0.0151001 0)
(51.1434 0.019482 0)
(51.1546 0.0258168 0)
(51.1659 0.0354103 0)
(51.1761 0.0481661 0)
(51.1843 0.0647509 0)
(51.189 0.0847655 0)
(51.1885 0.107628 0)
(51.1813 0.131643 0)
(51.1664 0.154479 0)
(51.144 0.173095 0)
(51.1155 0.184576 0)
(51.0839 0.186793 0)
(51.0529 0.1792 0)
(51.0258 0.162991 0)
(51.0051 0.140681 0)
(50.9917 0.115304 0)
(50.9851 0.0895918 0)
(50.9842 0.0655904 0)
(50.9873 0.0446407 0)
(50.9925 0.0274078 0)
(50.9985 0.0139028 0)