/*--------------------------------*- C++ -*----------------------------------*\
  =========                 |
  \\      /  F ield         | OpenFOAM: The Open Source CFD Toolbox
   \\    /   O peration     | Website:  https://openfoam.org
    \\  /    A nd           | Version:  dev
     \\/     M anipulation  |
\*---------------------------------------------------------------------------*/
FoamFile
{
    version     2.0;
    format      ascii;
    class       volScalarField;
    location    "175";
    object      yPlus;
}
// * * * * * * * * * * * * * * * * * * * * * * * * * * * * * * * * * * * * * //

dimensions      [0 0 0 0 0 0 0];

internalField   uniform 0;

boundaryField
{
    inlet-l
    {
        type            calculated;
        value           uniform 0;
    }
    airfoil-l1
    {
        type            calculated;
        value           nonuniform List<scalar> 
71
(
191.473
214.727
249.808
283.613
310.184
327.585
337.898
343.075
344.608
343.63
340.832
336.97
331.612
325.196
318.12
310.651
302.959
295.152
287.286
279.439
271.675
264.014
256.486
249.121
241.945
234.98
228.248
221.763
215.576
209.716
204.217
199.118
194.463
190.294
186.676
183.641
181.209
179.361
178.058
177.254
176.841
176.74
176.915
177.217
177.632
178.002
178.369
178.612
178.732
178.683
178.483
178.044
177.34
176.438
175.296
173.885
172.286
170.444
168.433
166.222
163.898
161.432
158.873
156.243
153.547
150.837
148.117
145.436
142.774
140.271
137.64
)
;
    }
    empty-1
    {
        type            empty;
    }
    empty-2
    {
        type            empty;
    }
    wall-l1
    {
        type            calculated;
        value           nonuniform List<scalar> 
104
(
13.7829
11.4479
11.3209
11.1609
10.9109
10.8252
10.4999
10.0442
9.96388
9.90366
9.62178
9.45666
9.13648
8.75366
8.5736
8.31219
7.95373
7.61529
7.15543
6.63728
6.22103
5.81889
5.48838
5.33802
5.26106
5.30095
5.49615
5.75983
6.07421
6.41925
6.7554
7.08315
7.41143
7.74426
8.09208
8.46238
8.85358
9.26292
9.68388
10.1071
10.5252
10.9305
11.3173
11.6827
12.0255
12.3457
12.6465
12.9315
13.2062
13.4748
13.7425
14.0133
14.2883
14.5685
14.8521
15.1376
15.422
15.7035
15.9803
16.2514
16.5163
16.7751
17.0277
17.2753
17.5178
17.7546
17.9874
18.2164
18.4416
18.6636
18.8839
19.1022
19.3198
19.5366
19.7527
19.968
20.1812
20.3921
20.5999
20.8036
21.0027
21.1969
21.3859
21.5712
21.7525
21.9313
22.1088
22.2864
22.465
22.647
22.8319
23.0218
23.2157
23.415
23.6181
23.826
24.0368
24.2496
24.4646
24.6808
24.8958
25.1122
25.3201
25.5576
)
;
    }
    airfoil-l2
    {
        type            calculated;
        value           nonuniform List<scalar> 
104
(
137.283
139.641
141.48
142.814
143.785
144.466
144.913
145.175
145.314
145.356
145.28
145.098
144.843
144.541
144.204
143.841
143.455
143.066
142.644
142.203
141.76
141.332
140.918
140.492
140.044
139.567
139.069
138.572
138.087
137.598
137.082
136.547
136.01
135.491
135.023
134.612
134.22
133.801
133.32
132.774
132.193
131.609
131.039
130.471
129.87
129.191
128.414
127.588
126.764
126.035
125.434
124.974
124.622
124.307
123.971
123.568
123.09
122.562
122.005
121.446
120.892
120.349
119.809
119.24
118.648
118.026
117.378
116.709
116.022
115.315
114.577
113.813
113.058
112.333
111.628
110.946
110.226
109.416
108.507
107.518
106.508
105.538
104.665
103.856
103.048
102.164
101.149
99.9813
98.692
97.3766
96.0686
94.7914
93.526
92.2285
90.8582
89.3743
87.7589
85.9946
84.0641
81.9074
79.5158
76.6215
73.5471
67.6515
)
;
    }
    empty-3
    {
        type            empty;
    }
    empty-4
    {
        type            empty;
    }
    wall-l2
    {
        type            calculated;
        value           nonuniform List<scalar> 
51
(
25.7352
25.9432
26.1422
26.3363
26.5261
26.7124
26.8954
27.0748
27.2503
27.4225
27.5915
27.7572
27.9195
28.0787
28.2346
28.3877
28.5379
28.6854
28.83
28.9718
29.1108
29.2472
29.3811
29.5128
29.6422
29.7693
29.8939
30.016
30.1352
30.2515
30.3643
30.4735
30.5782
30.6778
30.7712
30.8576
30.9354
31.0033
31.0596
31.1024
31.13
31.1407
31.1329
31.1059
31.0597
30.9955
30.9158
30.8279
30.7423
30.6904
30.7502
)
;
    }
    outlet-l
    {
        type            calculated;
        value           uniform 0;
    }
    empty-5
    {
        type            empty;
    }
    empty-6
    {
        type            empty;
    }
    outlet-h
    {
        type            calculated;
        value           uniform 0;
    }
    wall-h2
    {
        type            calculated;
        value           nonuniform List<scalar> 
51
(
26.2704
26.4782
26.6775
26.8716
27.0615
27.2478
27.4305
27.6097
27.7853
27.9577
28.1269
28.2931
28.4561
28.6162
28.7735
28.9282
29.0805
29.2305
29.378
29.5232
29.6661
29.8069
29.9457
30.0829
30.2184
30.3524
30.4846
30.6151
30.7437
30.8702
30.9944
31.1157
31.2336
31.3473
31.4558
31.558
31.6526
31.7381
31.8126
31.8744
31.9215
31.9522
31.9648
31.9584
31.9327
31.8889
31.8294
31.7608
31.6963
31.6618
31.7611
)
;
    }
    empty-7
    {
        type            empty;
    }
    empty-8
    {
        type            empty;
    }
    airfoil-h2
    {
        type            calculated;
        value           nonuniform List<scalar> 
104
(
135.94
138.262
140.087
141.421
142.398
143.098
143.567
143.865
144.039
144.129
144.121
144.009
143.82
143.576
143.293
142.991
142.662
142.321
141.949
141.568
141.182
140.799
140.421
140.041
139.639
139.194
138.734
138.264
137.798
137.342
136.87
136.368
135.85
135.361
134.916
134.522
134.152
133.759
133.312
132.79
132.224
131.634
131.046
130.456
129.85
129.202
128.497
127.758
127.024
126.339
125.751
125.24
124.804
124.4
123.983
123.534
123.051
122.533
121.989
121.447
120.899
120.363
119.811
119.244
118.65
118.028
117.381
116.711
116.031
115.338
114.621
113.9
113.166
112.428
111.681
110.911
110.115
109.27
108.394
107.495
106.588
105.689
104.784
103.851
102.888
101.891
100.85
99.7691
98.6361
97.4376
96.1657
94.8281
93.4455
92.0413
90.609
89.1267
87.5458
85.81
83.8718
81.6797
79.2392
76.2968
73.1959
67.2375
)
;
    }
    wall-h1
    {
        type            calculated;
        value           nonuniform List<scalar> 
104
(
13.1148
11.7133
10.9224
10.6289
10.1512
10.035
10.0919
9.50609
9.3734
9.35134
8.96869
8.77508
8.47191
8.01828
7.86401
7.6525
7.2933
7.01445
6.67334
6.30151
6.11495
5.99199
5.93186
6.01998
6.16506
6.36397
6.64183
6.944
7.25591
7.5768
7.89145
8.20183
8.51917
8.84556
9.18574
9.54328
9.91501
10.2976
10.6867
11.0754
11.4585
11.8299
12.186
12.5231
12.8414
13.1403
13.4228
13.6924
13.9537
14.2115
14.4692
14.7308
14.9977
15.2696
15.545
15.8224
16.0984
16.3713
16.639
16.9012
17.1565
17.4059
17.6495
17.8889
18.1241
18.3548
18.5826
18.8076
19.0292
19.2484
19.4655
19.6803
19.8928
20.1039
20.3131
20.5208
20.7258
20.9283
21.1286
21.3259
21.5193
21.7095
21.8972
22.0818
22.2651
22.4469
22.6286
22.811
22.9948
23.1817
23.3712
23.5649
23.7617
23.9631
24.1673
24.3753
24.5852
24.7974
25.0111
25.2248
25.4383
25.6533
25.8586
26.0946
)
;
    }
    empty-9
    {
        type            empty;
    }
    empty-10
    {
        type            empty;
    }
    inlet-h
    {
        type            calculated;
        value           uniform 0;
    }
    airfoil-h1
    {
        type            calculated;
        value           nonuniform List<scalar> 
71
(
189.622
210.05
244.56
279.109
307.449
326.831
338.892
345.458
348.031
347.776
345.468
341.827
336.751
330.418
323.276
315.633
307.686
299.566
291.333
283.096
274.907
266.794
258.807
250.978
243.316
235.867
228.647
221.695
215.034
208.703
202.748
197.217
192.153
187.603
183.642
180.295
177.593
175.54
174.085
173.167
172.706
172.595
172.768
173.127
173.636
174.113
174.562
174.915
175.158
175.265
175.171
174.907
174.387
173.638
172.636
171.369
169.893
168.19
166.264
164.171
161.917
159.536
157.052
154.491
151.869
149.201
146.555
143.918
141.322
138.885
136.308
)
;
    }
    empty-11
    {
        type            empty;
    }
    empty-12
    {
        type            empty;
    }
}


// ************************************************************************* //
