/*--------------------------------*- C++ -*----------------------------------*\
  =========                 |
  \\      /  F ield         | OpenFOAM: The Open Source CFD Toolbox
   \\    /   O peration     | Website:  https://openfoam.org
    \\  /    A nd           | Version:  dev
     \\/     M anipulation  |
\*---------------------------------------------------------------------------*/
FoamFile
{
    version     2.0;
    format      ascii;
    class       volScalarField;
    location    "50";
    object      nut;
}
// * * * * * * * * * * * * * * * * * * * * * * * * * * * * * * * * * * * * * //

dimensions      [0 2 -1 0 0 0 0];

internalField   nonuniform List<scalar> 
29380
(
9.11669e-06
9.11503e-06
9.10523e-06
9.1142e-06
9.10478e-06
9.1117e-06
9.11328e-06
9.10455e-06
9.11059e-06
9.10661e-06
9.11242e-06
9.10429e-06
9.11003e-06
9.10601e-06
9.10792e-06
9.11158e-06
9.10407e-06
9.10942e-06
9.1057e-06
9.10716e-06
9.10636e-06
9.1108e-06
9.10386e-06
9.10885e-06
9.10536e-06
9.10679e-06
9.10571e-06
9.10652e-06
9.11008e-06
9.10366e-06
9.10832e-06
9.10506e-06
9.10638e-06
9.10541e-06
9.10583e-06
9.10602e-06
9.10942e-06
9.10348e-06
9.10782e-06
9.10477e-06
9.10601e-06
9.10507e-06
9.10551e-06
9.10533e-06
9.10597e-06
9.10882e-06
9.10331e-06
9.10735e-06
9.10451e-06
9.10567e-06
9.10478e-06
9.10515e-06
9.10504e-06
9.10522e-06
9.10608e-06
9.10828e-06
9.10316e-06
9.10692e-06
9.10427e-06
9.10535e-06
9.10452e-06
9.10484e-06
9.1047e-06
9.10492e-06
9.1054e-06
9.10707e-06
9.10776e-06
9.10301e-06
9.10652e-06
9.10405e-06
9.10506e-06
9.10427e-06
9.10456e-06
9.1044e-06
9.10459e-06
9.10513e-06
9.10638e-06
9.10897e-06
9.10728e-06
9.10287e-06
9.10615e-06
9.10385e-06
9.10479e-06
9.10405e-06
9.1043e-06
9.10414e-06
9.10432e-06
9.10479e-06
9.10611e-06
9.1081e-06
9.112e-06
9.10682e-06
9.10275e-06
9.1058e-06
9.10367e-06
9.10454e-06
9.10385e-06
9.10407e-06
9.1039e-06
9.10407e-06
9.10451e-06
9.10575e-06
9.10773e-06
9.11104e-06
9.11671e-06
9.1064e-06
9.10263e-06
9.10548e-06
9.10349e-06
9.10431e-06
9.10365e-06
9.10386e-06
9.10369e-06
9.10384e-06
9.10426e-06
9.10543e-06
9.10731e-06
9.11058e-06
9.11553e-06
9.12447e-06
9.10601e-06
9.10252e-06
9.10518e-06
9.10333e-06
9.10409e-06
9.10347e-06
9.10367e-06
9.1035e-06
9.10365e-06
9.10404e-06
9.10513e-06
9.10697e-06
9.11006e-06
9.11489e-06
9.1227e-06
9.13584e-06
9.10564e-06
9.10247e-06
9.1049e-06
9.10318e-06
9.10388e-06
9.10331e-06
9.10349e-06
9.10333e-06
9.10347e-06
9.10385e-06
9.10486e-06
9.10665e-06
9.10959e-06
9.1142e-06
9.12168e-06
9.1332e-06
9.1517e-06
9.10528e-06
9.10242e-06
9.10465e-06
9.10305e-06
9.1037e-06
9.10316e-06
9.10332e-06
9.10317e-06
9.10332e-06
9.10368e-06
9.10462e-06
9.10637e-06
9.10912e-06
9.11356e-06
9.12064e-06
9.13146e-06
9.14792e-06
9.17399e-06
9.10489e-06
9.10233e-06
9.10441e-06
9.10293e-06
9.10354e-06
9.10302e-06
9.10316e-06
9.10302e-06
9.10317e-06
9.10353e-06
9.10442e-06
9.1061e-06
9.10869e-06
9.11293e-06
9.11963e-06
9.12971e-06
9.14567e-06
9.16732e-06
9.20537e-06
9.10444e-06
9.10222e-06
9.10417e-06
9.10282e-06
9.10339e-06
9.1029e-06
9.10301e-06
9.10289e-06
9.10303e-06
9.10339e-06
9.10424e-06
9.10586e-06
9.10831e-06
9.11231e-06
9.11863e-06
9.12814e-06
9.143e-06
9.16391e-06
9.19534e-06
9.2471e-06
9.10397e-06
9.1021e-06
9.10391e-06
9.1027e-06
9.10325e-06
9.1028e-06
9.10289e-06
9.10276e-06
9.10288e-06
9.10325e-06
9.10407e-06
9.10564e-06
9.10798e-06
9.11173e-06
9.11768e-06
9.12665e-06
9.14046e-06
9.16025e-06
9.1902e-06
9.23195e-06
9.30133e-06
9.10352e-06
9.10201e-06
9.10362e-06
9.10254e-06
9.1031e-06
9.10271e-06
9.10279e-06
9.10266e-06
9.10274e-06
9.10309e-06
9.10389e-06
9.10541e-06
9.10767e-06
9.11119e-06
9.11678e-06
9.12524e-06
9.13803e-06
9.157e-06
9.18427e-06
9.22441e-06
9.27978e-06
9.36962e-06
9.10312e-06
9.10197e-06
9.10334e-06
9.10237e-06
9.10293e-06
9.1026e-06
9.10271e-06
9.1026e-06
9.10263e-06
9.10293e-06
9.1037e-06
9.10516e-06
9.10736e-06
9.11071e-06
9.11594e-06
9.1239e-06
9.13583e-06
9.15378e-06
9.17878e-06
9.21606e-06
9.26909e-06
9.3397e-06
9.45353e-06
9.10287e-06
9.10197e-06
9.10311e-06
9.10223e-06
9.10273e-06
9.10247e-06
9.10261e-06
9.10255e-06
9.10257e-06
9.1028e-06
9.10349e-06
9.10488e-06
9.10701e-06
9.11025e-06
9.11515e-06
9.12264e-06
9.13382e-06
9.15057e-06
9.17356e-06
9.20856e-06
9.25713e-06
9.32501e-06
9.41296e-06
9.55426e-06
9.10282e-06
9.10199e-06
9.10297e-06
9.10214e-06
9.10255e-06
9.10233e-06
9.10249e-06
9.1025e-06
9.10254e-06
9.10272e-06
9.10331e-06
9.10458e-06
9.10661e-06
9.10976e-06
9.11438e-06
9.12145e-06
9.13197e-06
9.14744e-06
9.16886e-06
9.2014e-06
9.24638e-06
9.30857e-06
9.39324e-06
9.50046e-06
9.67228e-06
9.10279e-06
9.10201e-06
9.10289e-06
9.10211e-06
9.10242e-06
9.10221e-06
9.10236e-06
9.10241e-06
9.10251e-06
9.10268e-06
9.1032e-06
9.1043e-06
9.10618e-06
9.10919e-06
9.11359e-06
9.12029e-06
9.13022e-06
9.14453e-06
9.16469e-06
9.19466e-06
9.23622e-06
9.29385e-06
9.37116e-06
9.47455e-06
9.60243e-06
9.80754e-06
9.10264e-06
9.10199e-06
9.10281e-06
9.10213e-06
9.10234e-06
9.10213e-06
9.10224e-06
9.10228e-06
9.10244e-06
9.10266e-06
9.10315e-06
9.1041e-06
9.10578e-06
9.10855e-06
9.11272e-06
9.11908e-06
9.12851e-06
9.1419e-06
9.16097e-06
9.18835e-06
9.22682e-06
9.27996e-06
9.35146e-06
9.44552e-06
9.56908e-06
9.71863e-06
9.95922e-06
9.10243e-06
9.10194e-06
9.10268e-06
9.10212e-06
9.10232e-06
9.1021e-06
9.10215e-06
9.10215e-06
9.10232e-06
9.10259e-06
9.10311e-06
9.104e-06
9.10549e-06
9.10794e-06
9.11181e-06
9.11777e-06
9.12675e-06
9.13946e-06
9.15749e-06
9.18254e-06
9.21822e-06
9.26715e-06
9.33292e-06
9.4197e-06
9.53167e-06
9.67651e-06
9.84813e-06
1.01258e-05
9.10222e-06
9.10189e-06
9.10251e-06
9.10208e-06
9.1023e-06
9.10209e-06
9.10211e-06
9.10207e-06
9.10219e-06
9.10246e-06
9.10303e-06
9.10394e-06
9.10534e-06
9.10747e-06
9.11093e-06
9.11638e-06
9.12485e-06
9.137e-06
9.15403e-06
9.17722e-06
9.21042e-06
9.25546e-06
9.31584e-06
9.39549e-06
9.49852e-06
9.62925e-06
9.79593e-06
9.98942e-06
1.03053e-05
9.10212e-06
9.10186e-06
9.10232e-06
9.102e-06
9.10224e-06
9.10208e-06
9.1021e-06
9.10204e-06
9.10209e-06
9.10231e-06
9.10288e-06
9.10383e-06
9.10524e-06
9.1072e-06
9.11024e-06
9.11508e-06
9.12282e-06
9.13433e-06
9.15043e-06
9.17222e-06
9.20324e-06
9.2449e-06
9.30026e-06
9.3732e-06
9.46752e-06
9.58748e-06
9.73728e-06
9.92585e-06
1.01406e-05
1.04953e-05
9.10214e-06
9.10186e-06
9.10217e-06
9.10193e-06
9.10213e-06
9.10203e-06
9.10208e-06
9.10205e-06
9.10206e-06
9.1022e-06
9.10268e-06
9.10362e-06
9.10508e-06
9.10704e-06
9.10979e-06
9.11405e-06
9.12086e-06
9.13146e-06
9.14658e-06
9.16727e-06
9.19632e-06
9.23523e-06
9.28624e-06
9.3529e-06
9.43904e-06
9.54853e-06
9.68561e-06
9.85432e-06
1.00645e-05
1.02994e-05
1.0693e-05
9.10219e-06
9.10189e-06
9.10211e-06
9.10189e-06
9.10201e-06
9.10196e-06
9.10203e-06
9.10205e-06
9.10208e-06
9.10216e-06
9.10252e-06
9.10335e-06
9.10477e-06
9.1068e-06
9.1095e-06
9.11339e-06
9.11926e-06
9.12864e-06
9.14255e-06
9.16208e-06
9.18922e-06
9.22596e-06
9.27349e-06
9.33463e-06
9.41313e-06
9.51284e-06
9.63755e-06
9.79149e-06
9.97864e-06
1.02096e-05
1.04633e-05
1.08956e-05
9.10219e-06
9.10192e-06
9.10212e-06
9.1019e-06
9.10195e-06
9.10189e-06
9.10197e-06
9.10202e-06
9.1021e-06
9.10218e-06
9.10244e-06
9.10312e-06
9.10437e-06
9.10637e-06
9.10913e-06
9.11294e-06
9.1182e-06
9.1263e-06
9.13864e-06
9.15657e-06
9.18163e-06
9.21643e-06
9.26138e-06
9.31812e-06
9.38985e-06
9.48043e-06
9.59364e-06
9.73321e-06
9.90346e-06
1.01081e-05
1.03589e-05
1.06299e-05
1.11005e-05
9.10214e-06
9.10194e-06
9.10214e-06
9.10194e-06
9.10195e-06
9.10186e-06
9.1019e-06
9.10196e-06
9.10208e-06
9.10221e-06
9.10244e-06
9.103e-06
9.10402e-06
9.1058e-06
9.10854e-06
9.11241e-06
9.11752e-06
9.12468e-06
9.13533e-06
9.15114e-06
9.17366e-06
9.20615e-06
9.24901e-06
9.30262e-06
9.36891e-06
9.45135e-06
9.55383e-06
9.6801e-06
9.83391e-06
1.00195e-05
1.02407e-05
1.05101e-05
1.07967e-05
1.13049e-05
9.1021e-06
9.10193e-06
9.10213e-06
9.10197e-06
9.10199e-06
9.10188e-06
9.10187e-06
9.10191e-06
9.10202e-06
9.10218e-06
9.10245e-06
9.10299e-06
9.10383e-06
9.10528e-06
9.10779e-06
9.11161e-06
9.11684e-06
9.12364e-06
9.13297e-06
9.14649e-06
9.16598e-06
9.19517e-06
9.23559e-06
9.28696e-06
9.34945e-06
9.42526e-06
9.51816e-06
9.63204e-06
9.77068e-06
9.93776e-06
1.01378e-05
1.03743e-05
1.06611e-05
1.09616e-05
1.15064e-05
9.1021e-06
9.10192e-06
9.10207e-06
9.10198e-06
9.10202e-06
9.10191e-06
9.10188e-06
9.10189e-06
9.10195e-06
9.10211e-06
9.10242e-06
9.10299e-06
9.10378e-06
9.10497e-06
9.10708e-06
9.11058e-06
9.11581e-06
9.12265e-06
9.13139e-06
9.14316e-06
9.1596e-06
9.1844e-06
9.22105e-06
9.26993e-06
9.32995e-06
9.40117e-06
9.48626e-06
9.58906e-06
9.71362e-06
9.86363e-06
1.00429e-05
1.02562e-05
1.05068e-05
1.08097e-05
1.11226e-05
1.17028e-05
9.10215e-06
9.10193e-06
9.10201e-06
9.10195e-06
9.10201e-06
9.10195e-06
9.10192e-06
9.10191e-06
9.10192e-06
9.10203e-06
9.10234e-06
9.10293e-06
9.10377e-06
9.10486e-06
9.10661e-06
9.10958e-06
9.11443e-06
9.12125e-06
9.12998e-06
9.14097e-06
9.15518e-06
9.1753e-06
9.20653e-06
9.25122e-06
9.30875e-06
9.37728e-06
9.45701e-06
9.55076e-06
9.66269e-06
9.79691e-06
9.95719e-06
1.01476e-05
1.0373e-05
1.06365e-05
1.09543e-05
1.12779e-05
1.18919e-05
9.1022e-06
9.10196e-06
9.10198e-06
9.10193e-06
9.10197e-06
9.10195e-06
9.10196e-06
9.10194e-06
9.10193e-06
9.10199e-06
9.10225e-06
9.10279e-06
9.10368e-06
9.10481e-06
9.10637e-06
9.10884e-06
9.11301e-06
9.1194e-06
9.12813e-06
9.13911e-06
9.15243e-06
9.16902e-06
9.19407e-06
9.23213e-06
9.2852e-06
9.35148e-06
9.42827e-06
9.51586e-06
9.61744e-06
9.73752e-06
9.88025e-06
1.00497e-05
1.02502e-05
1.04866e-05
1.07618e-05
1.10932e-05
1.14256e-05
1.20712e-05
9.10226e-06
9.10201e-06
9.10199e-06
9.10193e-06
9.10193e-06
9.10194e-06
9.10197e-06
9.10197e-06
9.10196e-06
9.10199e-06
9.10218e-06
9.10264e-06
9.10349e-06
9.10467e-06
9.1062e-06
9.10839e-06
9.11188e-06
9.11747e-06
9.12571e-06
9.13672e-06
9.15015e-06
9.16538e-06
9.1854e-06
9.2154e-06
9.26078e-06
9.32265e-06
9.39735e-06
9.48186e-06
9.57647e-06
9.6849e-06
9.81198e-06
9.96212e-06
1.01397e-05
1.03492e-05
1.05956e-05
1.08813e-05
1.12249e-05
1.1564e-05
1.22412e-05
9.10232e-06
9.10206e-06
9.10203e-06
9.10196e-06
9.10193e-06
9.10192e-06
9.10195e-06
9.10198e-06
9.102e-06
9.10203e-06
9.10217e-06
9.10253e-06
9.10327e-06
9.10441e-06
9.10596e-06
9.10806e-06
9.1111e-06
9.11585e-06
9.12316e-06
9.13358e-06
9.14718e-06
9.16287e-06
9.18055e-06
9.20361e-06
9.23901e-06
9.2923e-06
9.36263e-06
9.44542e-06
9.53686e-06
9.63746e-06
9.75169e-06
9.88466e-06
1.00411e-05
1.02259e-05
1.04436e-05
1.06989e-05
1.09937e-05
1.13476e-05
1.16981e-05
1.24288e-05
9.1024e-06
9.1021e-06
9.10208e-06
9.10201e-06
9.10195e-06
9.10193e-06
9.10194e-06
9.10196e-06
9.10202e-06
9.10207e-06
9.10218e-06
9.10248e-06
9.10309e-06
9.1041e-06
9.10562e-06
9.10769e-06
9.11051e-06
9.11466e-06
9.12093e-06
9.13021e-06
9.14318e-06
9.15966e-06
9.17762e-06
9.19722e-06
9.22349e-06
9.26468e-06
9.32558e-06
9.40425e-06
9.49453e-06
9.59188e-06
9.69757e-06
9.81652e-06
9.95428e-06
1.01161e-05
1.03073e-05
1.05321e-05
1.07951e-05
1.10976e-05
1.14688e-05
1.18458e-05
1.26275e-05
9.10248e-06
9.10214e-06
9.10212e-06
9.10206e-06
9.10199e-06
9.10197e-06
9.10194e-06
9.10195e-06
9.10201e-06
9.10209e-06
9.10221e-06
9.10247e-06
9.10299e-06
9.10384e-06
9.10524e-06
9.10724e-06
9.10993e-06
9.1137e-06
9.11916e-06
9.12719e-06
9.13877e-06
9.15496e-06
9.17409e-06
9.19391e-06
9.21517e-06
9.24453e-06
9.29125e-06
9.35974e-06
9.44641e-06
9.54333e-06
9.64581e-06
9.75559e-06
9.87819e-06
1.00198e-05
1.01863e-05
1.03829e-05
1.06139e-05
1.08833e-05
1.12023e-05
1.16028e-05
1.20098e-05
1.28236e-05
9.10258e-06
9.10218e-06
9.10216e-06
9.1021e-06
9.10204e-06
9.10201e-06
9.10197e-06
9.10196e-06
9.10201e-06
9.1021e-06
9.10222e-06
9.10247e-06
9.10292e-06
9.10365e-06
9.1049e-06
9.10677e-06
9.10933e-06
9.1128e-06
9.11768e-06
9.12469e-06
9.13472e-06
9.14931e-06
9.16858e-06
9.19021e-06
9.21134e-06
9.2336e-06
9.26574e-06
9.31787e-06
9.39376e-06
9.48794e-06
9.59078e-06
9.69755e-06
9.81047e-06
9.93572e-06
1.00804e-05
1.02508e-05
1.0452e-05
1.06879e-05
1.09736e-05
1.13203e-05
1.17472e-05
1.21625e-05
1.30189e-05
9.1027e-06
9.10223e-06
9.1022e-06
9.10214e-06
9.10207e-06
9.10206e-06
9.10202e-06
9.10201e-06
9.10203e-06
9.10211e-06
9.10223e-06
9.10246e-06
9.10286e-06
9.1035e-06
9.10459e-06
9.10633e-06
9.10876e-06
9.11196e-06
9.11633e-06
9.12252e-06
9.13126e-06
9.14374e-06
9.16148e-06
9.18393e-06
9.2075e-06
9.22901e-06
9.25182e-06
9.28632e-06
9.3436e-06
9.42682e-06
9.52779e-06
9.63586e-06
9.74614e-06
9.86129e-06
9.98842e-06
1.01354e-05
1.0309e-05
1.05138e-05
1.0765e-05
1.1078e-05
1.14416e-05
1.18876e-05
1.23263e-05
1.32144e-05
9.10285e-06
9.10229e-06
9.10226e-06
9.10219e-06
9.10211e-06
9.10209e-06
9.10207e-06
9.10207e-06
9.10207e-06
9.10213e-06
9.10225e-06
9.10246e-06
9.10281e-06
9.10336e-06
9.10429e-06
9.10587e-06
9.10821e-06
9.11126e-06
9.11518e-06
9.12057e-06
9.12821e-06
9.13882e-06
9.1541e-06
9.17527e-06
9.20052e-06
9.22518e-06
9.24649e-06
9.2691e-06
9.30542e-06
9.36791e-06
9.45771e-06
9.56495e-06
9.67772e-06
9.79081e-06
9.9074e-06
1.00357e-05
1.01845e-05
1.03602e-05
1.05794e-05
1.08558e-05
1.11814e-05
1.15677e-05
1.20338e-05
1.24866e-05
1.34113e-05
9.103e-06
9.10235e-06
9.10233e-06
9.10224e-06
9.10215e-06
9.10213e-06
9.10211e-06
9.10212e-06
9.10212e-06
9.10216e-06
9.10228e-06
9.10248e-06
9.10279e-06
9.10325e-06
9.104e-06
9.10536e-06
9.10758e-06
9.11062e-06
9.11432e-06
9.11902e-06
9.12552e-06
9.13455e-06
9.14736e-06
9.16579e-06
9.19026e-06
9.21781e-06
9.243e-06
9.26317e-06
9.28469e-06
9.3226e-06
9.38956e-06
9.48553e-06
9.59866e-06
9.71569e-06
9.83092e-06
9.94829e-06
1.00772e-05
1.02269e-05
1.04166e-05
1.06573e-05
1.09465e-05
1.1293e-05
1.16925e-05
1.21796e-05
1.26489e-05
1.35949e-05
9.10313e-06
9.1024e-06
9.10241e-06
9.1023e-06
9.1022e-06
9.10217e-06
9.10215e-06
9.10216e-06
9.10217e-06
9.1022e-06
9.1023e-06
9.10251e-06
9.10281e-06
9.10321e-06
9.10379e-06
9.10485e-06
9.10678e-06
9.10979e-06
9.11359e-06
9.118e-06
9.12349e-06
9.131e-06
9.14157e-06
9.15688e-06
9.17854e-06
9.20615e-06
9.23556e-06
9.26037e-06
9.27833e-06
9.29796e-06
9.33674e-06
9.40777e-06
9.50959e-06
9.62837e-06
9.74924e-06
9.86602e-06
9.98365e-06
1.01126e-05
1.0276e-05
1.04826e-05
1.0738e-05
1.1042e-05
1.14035e-05
1.18215e-05
1.23192e-05
1.27916e-05
1.37635e-05
9.10325e-06
9.10246e-06
9.1025e-06
9.10237e-06
9.10226e-06
9.10222e-06
9.10218e-06
9.10219e-06
9.10221e-06
9.10224e-06
9.10232e-06
9.10252e-06
9.10284e-06
9.10323e-06
9.10371e-06
9.10448e-06
9.10594e-06
9.10864e-06
9.11256e-06
9.1172e-06
9.12231e-06
9.12852e-06
9.13698e-06
9.14919e-06
9.16715e-06
9.19214e-06
9.22262e-06
9.2532e-06
9.27663e-06
9.2911e-06
9.30812e-06
9.34724e-06
9.42198e-06
9.52938e-06
9.65366e-06
9.77795e-06
9.89585e-06
1.00132e-05
1.01554e-05
1.03324e-05
1.05538e-05
1.08203e-05
1.11404e-05
1.15128e-05
1.1938e-05
1.24473e-05
1.29308e-05
1.39191e-05
9.10336e-06
9.10251e-06
9.10258e-06
9.10244e-06
9.10233e-06
9.10228e-06
9.10223e-06
9.10223e-06
9.10225e-06
9.10228e-06
9.10235e-06
9.1025e-06
9.10282e-06
9.10326e-06
9.10375e-06
9.10435e-06
9.10533e-06
9.10736e-06
9.11098e-06
9.11596e-06
9.12148e-06
9.12725e-06
9.13402e-06
9.14325e-06
9.15721e-06
9.1781e-06
9.20619e-06
9.23911e-06
9.27009e-06
9.2908e-06
9.301e-06
9.31468e-06
9.35371e-06
9.43165e-06
9.54459e-06
9.67418e-06
9.8016e-06
9.92024e-06
1.00504e-05
1.02051e-05
1.03945e-05
1.06271e-05
1.09051e-05
1.1232e-05
1.16155e-05
1.20523e-05
1.2568e-05
1.30469e-05
1.40429e-05
9.10345e-06
9.10256e-06
9.10267e-06
9.1025e-06
9.1024e-06
9.10234e-06
9.10229e-06
9.10228e-06
9.10229e-06
9.10233e-06
9.10239e-06
9.10249e-06
9.10275e-06
9.10321e-06
9.10379e-06
9.10441e-06
9.10512e-06
9.10639e-06
9.10913e-06
9.11384e-06
9.11999e-06
9.12642e-06
9.13272e-06
9.1397e-06
9.14967e-06
9.16565e-06
9.18916e-06
9.22016e-06
9.25497e-06
9.28537e-06
9.30255e-06
9.3076e-06
9.31737e-06
9.35553e-06
9.43653e-06
9.55499e-06
9.68976e-06
9.82005e-06
9.95183e-06
1.00951e-05
1.026e-05
1.04602e-05
1.06984e-05
1.09853e-05
1.13234e-05
1.17119e-05
1.21474e-05
1.26594e-05
1.31346e-05
1.41428e-05
9.1035e-06
9.10259e-06
9.10274e-06
9.10257e-06
9.10247e-06
9.10241e-06
9.10236e-06
9.10234e-06
9.10234e-06
9.10238e-06
9.10244e-06
9.10251e-06
9.10269e-06
9.10308e-06
9.10371e-06
9.10448e-06
9.10523e-06
9.10604e-06
9.10767e-06
9.11125e-06
9.11723e-06
9.12466e-06
9.13197e-06
9.13847e-06
9.14546e-06
9.15624e-06
9.17388e-06
9.19997e-06
9.23343e-06
9.26962e-06
9.29866e-06
9.31138e-06
9.3106e-06
9.31564e-06
9.35252e-06
9.43652e-06
9.56045e-06
9.70024e-06
9.84505e-06
9.99151e-06
1.01449e-05
1.03178e-05
1.05225e-05
1.07704e-05
1.10621e-05
1.13994e-05
1.17872e-05
1.22242e-05
1.27395e-05
1.32169e-05
1.42497e-05
9.10357e-06
9.10262e-06
9.10281e-06
9.10262e-06
9.10253e-06
9.10247e-06
9.10242e-06
9.1024e-06
9.1024e-06
9.10243e-06
9.10249e-06
9.10257e-06
9.10268e-06
9.10294e-06
9.10349e-06
9.10435e-06
9.10535e-06
9.1062e-06
9.10712e-06
9.10917e-06
9.11374e-06
9.12116e-06
9.12994e-06
9.13799e-06
9.14441e-06
9.15117e-06
9.16244e-06
9.18168e-06
9.2099e-06
9.24559e-06
9.28251e-06
9.30939e-06
9.31694e-06
9.30963e-06
9.3093e-06
9.34465e-06
9.43158e-06
9.56087e-06
9.71663e-06
9.87866e-06
1.00363e-05
1.01956e-05
1.03749e-05
1.05848e-05
1.08318e-05
1.11235e-05
1.14654e-05
1.186e-05
1.23014e-05
1.28214e-05
1.33136e-05
1.43822e-05
9.10378e-06
9.10265e-06
9.10285e-06
9.10267e-06
9.10259e-06
9.10253e-06
9.10248e-06
9.10247e-06
9.10246e-06
9.10248e-06
9.10253e-06
9.10262e-06
9.10273e-06
9.10288e-06
9.10326e-06
9.10403e-06
9.10519e-06
9.1064e-06
9.10734e-06
9.10837e-06
9.1109e-06
9.11664e-06
9.12561e-06
9.13579e-06
9.14434e-06
9.15023e-06
9.15653e-06
9.16807e-06
9.18849e-06
9.21861e-06
9.25602e-06
9.29305e-06
9.3171e-06
9.31903e-06
9.30455e-06
9.29838e-06
9.33201e-06
9.4217e-06
9.56657e-06
9.74192e-06
9.91626e-06
1.00815e-05
1.02475e-05
1.04268e-05
1.06358e-05
1.08868e-05
1.11857e-05
1.15335e-05
1.19302e-05
1.23723e-05
1.2903e-05
1.34166e-05
1.45446e-05
9.10382e-06
9.10275e-06
9.1029e-06
9.1027e-06
9.10264e-06
9.10258e-06
9.10255e-06
9.10252e-06
9.10252e-06
9.10254e-06
9.10258e-06
9.10267e-06
9.10279e-06
9.10292e-06
9.10314e-06
9.10366e-06
9.10473e-06
9.10623e-06
9.10767e-06
9.10868e-06
9.10979e-06
9.11291e-06
9.1199e-06
9.13054e-06
9.14203e-06
9.15064e-06
9.15583e-06
9.16126e-06
9.17271e-06
9.19396e-06
9.22556e-06
9.26419e-06
9.30077e-06
9.32174e-06
9.31757e-06
9.2954e-06
9.28308e-06
9.31473e-06
9.41639e-06
9.58101e-06
9.76947e-06
9.95509e-06
1.01257e-05
1.02921e-05
1.04746e-05
1.0689e-05
1.09445e-05
1.12443e-05
1.15899e-05
1.19819e-05
1.24261e-05
1.29694e-05
1.35206e-05
1.48875e-05
9.10392e-06
9.10278e-06
9.10304e-06
9.10274e-06
9.10268e-06
9.10263e-06
9.1026e-06
9.10258e-06
9.10258e-06
9.1026e-06
9.10263e-06
9.10271e-06
9.10284e-06
9.103e-06
9.10316e-06
9.10346e-06
9.1042e-06
9.10562e-06
9.10749e-06
9.10918e-06
9.11021e-06
9.1114e-06
9.11516e-06
9.12347e-06
9.1358e-06
9.14833e-06
9.15683e-06
9.16081e-06
9.16509e-06
9.17604e-06
9.19771e-06
9.23035e-06
9.26974e-06
9.30561e-06
9.3232e-06
9.31256e-06
9.28238e-06
9.26365e-06
9.30136e-06
9.41958e-06
9.59677e-06
9.79793e-06
9.98992e-06
1.0167e-05
1.03401e-05
1.0526e-05
1.07395e-05
1.09901e-05
1.12832e-05
1.16201e-05
1.20075e-05
1.24584e-05
1.30254e-05
1.37184e-05
2.12441e-05
9.10401e-06
9.10283e-06
9.10308e-06
9.10286e-06
9.10272e-06
9.10266e-06
9.10264e-06
9.10263e-06
9.10264e-06
9.10266e-06
9.10269e-06
9.10275e-06
9.10286e-06
9.10304e-06
9.10324e-06
9.10347e-06
9.10388e-06
9.10489e-06
9.10669e-06
9.10899e-06
9.11092e-06
9.11192e-06
9.1132e-06
9.11756e-06
9.12723e-06
9.14119e-06
9.15457e-06
9.16253e-06
9.16506e-06
9.16779e-06
9.17785e-06
9.1995e-06
9.23272e-06
9.27247e-06
9.30743e-06
9.32149e-06
9.30416e-06
9.2658e-06
9.24787e-06
9.29658e-06
9.42407e-06
9.61171e-06
9.82299e-06
1.00278e-05
1.02136e-05
1.03877e-05
1.05678e-05
1.07726e-05
1.10129e-05
1.12961e-05
1.1626e-05
1.20183e-05
1.2485e-05
1.31462e-05
1.72512e-05
8.24521e-05
9.10409e-06
9.10287e-06
9.10315e-06
9.1029e-06
9.10284e-06
9.1027e-06
9.10268e-06
9.10268e-06
9.10269e-06
9.10272e-06
9.10275e-06
9.10281e-06
9.10289e-06
9.10304e-06
9.10328e-06
9.10355e-06
9.10384e-06
9.10441e-06
9.10571e-06
9.10795e-06
9.11073e-06
9.11285e-06
9.1138e-06
9.11511e-06
9.12006e-06
9.13111e-06
9.14649e-06
9.16045e-06
9.16759e-06
9.16834e-06
9.16919e-06
9.17798e-06
9.19918e-06
9.23244e-06
9.27226e-06
9.30622e-06
9.31665e-06
9.29257e-06
9.25327e-06
9.24085e-06
9.29313e-06
9.42691e-06
9.62692e-06
9.8531e-06
1.00675e-05
1.02539e-05
1.04213e-05
1.05925e-05
1.0786e-05
1.10171e-05
1.12931e-05
1.16281e-05
1.20328e-05
1.25609e-05
1.54581e-05
6.25135e-05
0.000226671
9.10418e-06
9.10292e-06
9.10322e-06
9.10296e-06
9.10287e-06
9.10282e-06
9.10272e-06
9.10271e-06
9.10273e-06
9.10276e-06
9.10281e-06
9.10286e-06
9.10294e-06
9.10305e-06
9.10326e-06
9.10359e-06
9.10393e-06
9.10431e-06
9.10505e-06
9.10666e-06
9.10942e-06
9.11267e-06
9.11499e-06
9.11585e-06
9.11712e-06
9.12265e-06
9.1349e-06
9.15156e-06
9.16578e-06
9.17182e-06
9.17049e-06
9.16919e-06
9.17634e-06
9.19654e-06
9.22942e-06
9.26907e-06
9.30195e-06
9.30866e-06
9.28557e-06
9.24881e-06
9.2351e-06
9.28987e-06
9.43324e-06
9.64452e-06
9.87916e-06
1.00965e-05
1.02811e-05
1.04437e-05
1.06051e-05
1.07895e-05
1.10137e-05
1.12955e-05
1.1642e-05
1.20925e-05
1.40135e-05
5.03996e-05
0.000211373
0.000331739
9.10426e-06
9.10296e-06
9.10328e-06
9.10302e-06
9.10294e-06
9.10285e-06
9.10283e-06
9.10275e-06
9.10277e-06
9.10281e-06
9.10286e-06
9.10292e-06
9.10299e-06
9.10308e-06
9.10324e-06
9.10355e-06
9.10396e-06
9.10439e-06
9.10488e-06
9.10579e-06
9.10777e-06
9.11109e-06
9.11482e-06
9.11733e-06
9.11803e-06
9.1192e-06
9.12518e-06
9.13852e-06
9.15612e-06
9.17031e-06
9.17494e-06
9.17135e-06
9.1677e-06
9.17285e-06
9.19162e-06
9.22365e-06
9.26296e-06
9.29446e-06
9.30511e-06
9.28515e-06
9.2464e-06
9.23286e-06
9.2905e-06
9.43752e-06
9.65365e-06
9.89474e-06
1.01186e-05
1.03049e-05
1.04615e-05
1.06144e-05
1.07935e-05
1.10256e-05
1.13204e-05
1.17078e-05
1.30375e-05
3.99697e-05
0.000197125
0.000337592
0.000381192
9.10434e-06
9.10301e-06
9.10335e-06
9.10307e-06
9.10299e-06
9.10291e-06
9.10287e-06
9.10287e-06
9.10281e-06
9.10284e-06
9.1029e-06
9.10296e-06
9.10305e-06
9.10313e-06
9.10325e-06
9.10349e-06
9.10389e-06
9.10442e-06
9.10495e-06
9.10554e-06
9.10666e-06
9.10906e-06
9.11294e-06
9.11718e-06
9.11984e-06
9.1203e-06
9.12129e-06
9.1276e-06
9.14173e-06
9.15995e-06
9.17376e-06
9.17674e-06
9.17084e-06
9.16475e-06
9.16769e-06
9.18447e-06
9.21539e-06
9.2539e-06
9.29087e-06
9.30704e-06
9.28873e-06
9.24945e-06
9.23243e-06
9.28599e-06
9.43323e-06
9.65732e-06
9.91069e-06
1.01427e-05
1.03303e-05
1.04831e-05
1.06361e-05
1.08268e-05
1.10746e-05
1.14094e-05
1.23675e-05
3.18853e-05
0.000181739
0.00033756
0.000400411
0.000394365
9.10442e-06
9.10305e-06
9.10342e-06
9.10313e-06
9.10305e-06
9.10297e-06
9.10293e-06
9.1029e-06
9.10293e-06
9.10288e-06
9.10293e-06
9.103e-06
9.10308e-06
9.10318e-06
9.10328e-06
9.10346e-06
9.10379e-06
9.10432e-06
9.10497e-06
9.10561e-06
9.10634e-06
9.10769e-06
9.1105e-06
9.11497e-06
9.11972e-06
9.12247e-06
9.12265e-06
9.12333e-06
9.12976e-06
9.14436e-06
9.16286e-06
9.17588e-06
9.17713e-06
9.169e-06
9.16056e-06
9.16092e-06
9.17553e-06
9.20505e-06
9.2483e-06
9.29239e-06
9.3149e-06
9.29646e-06
9.25134e-06
9.22676e-06
9.27762e-06
9.43026e-06
9.6656e-06
9.9311e-06
1.0174e-05
1.03676e-05
1.05297e-05
1.06987e-05
1.09071e-05
1.11935e-05
1.19051e-05
2.58939e-05
0.000164943
0.000338139
0.00040928
0.000421839
0.000382107
9.1045e-06
9.10309e-06
9.10348e-06
9.10319e-06
9.10311e-06
9.10303e-06
9.10298e-06
9.10296e-06
9.10296e-06
9.10301e-06
9.10297e-06
9.10303e-06
9.10312e-06
9.10321e-06
9.10333e-06
9.10347e-06
9.10373e-06
9.10417e-06
9.10483e-06
9.10562e-06
9.10642e-06
9.10728e-06
9.10884e-06
9.11208e-06
9.11716e-06
9.12238e-06
9.12519e-06
9.12499e-06
9.12524e-06
9.13155e-06
9.14638e-06
9.16466e-06
9.17656e-06
9.17609e-06
9.16597e-06
9.1552e-06
9.15303e-06
9.16573e-06
9.19821e-06
9.24834e-06
9.29997e-06
9.32313e-06
9.30098e-06
9.25099e-06
9.22411e-06
9.27558e-06
9.43311e-06
9.67992e-06
9.96341e-06
1.02229e-05
1.04349e-05
1.06175e-05
1.08056e-05
1.1049e-05
1.15841e-05
2.15703e-05
0.000147342
0.00033698
0.000420596
0.000436093
0.000414322
0.000352597
9.10457e-06
9.10314e-06
9.10355e-06
9.10325e-06
9.10317e-06
9.10309e-06
9.10304e-06
9.10302e-06
9.10303e-06
9.10304e-06
9.1031e-06
9.10307e-06
9.10314e-06
9.10324e-06
9.10335e-06
9.10349e-06
9.10371e-06
9.10406e-06
9.10463e-06
9.10544e-06
9.10642e-06
9.10737e-06
9.10837e-06
9.11014e-06
9.11382e-06
9.11948e-06
9.12513e-06
9.12792e-06
9.12727e-06
9.12697e-06
9.13303e-06
9.14775e-06
9.16519e-06
9.1757e-06
9.17361e-06
9.1618e-06
9.14898e-06
9.14512e-06
9.15991e-06
9.19764e-06
9.25212e-06
9.30494e-06
9.32843e-06
9.30773e-06
9.25869e-06
9.22992e-06
9.28018e-06
9.44457e-06
9.70927e-06
1.00143e-05
1.02967e-05
1.0534e-05
1.07389e-05
1.09585e-05
1.13651e-05
1.84441e-05
0.000129271
0.000334326
0.000431206
0.000453677
0.000431808
0.00038696
0.000313253
9.10464e-06
9.10318e-06
9.10362e-06
9.10331e-06
9.10323e-06
9.10314e-06
9.1031e-06
9.10308e-06
9.10308e-06
9.10311e-06
9.10314e-06
9.10321e-06
9.10318e-06
9.10326e-06
9.10337e-06
9.1035e-06
9.10371e-06
9.104e-06
9.10448e-06
9.10519e-06
9.10619e-06
9.10736e-06
9.10847e-06
9.1096e-06
9.11159e-06
9.11569e-06
9.12187e-06
9.12789e-06
9.13059e-06
9.12944e-06
9.12854e-06
9.1343e-06
9.14822e-06
9.1643e-06
9.17315e-06
9.16971e-06
9.15652e-06
9.14264e-06
9.14184e-06
9.1607e-06
9.19852e-06
9.25415e-06
9.30985e-06
9.33954e-06
9.32368e-06
9.27553e-06
9.24534e-06
9.29806e-06
9.47371e-06
9.75606e-06
1.00809e-05
1.03919e-05
1.06573e-05
1.08936e-05
1.12232e-05
1.62047e-05
0.000111008
0.000329734
0.00044178
0.000470866
0.000453055
0.000406145
0.000348111
0.000272669
9.10471e-06
9.10323e-06
9.10369e-06
9.10337e-06
9.10329e-06
9.1032e-06
9.10316e-06
9.10314e-06
9.10314e-06
9.10317e-06
9.10321e-06
9.10325e-06
9.10333e-06
9.1033e-06
9.10338e-06
9.1035e-06
9.1037e-06
9.10398e-06
9.10439e-06
9.10501e-06
9.10588e-06
9.10708e-06
9.10846e-06
9.10974e-06
9.11099e-06
9.1132e-06
9.11766e-06
9.12431e-06
9.13058e-06
9.13313e-06
9.1314e-06
9.13003e-06
9.13508e-06
9.14769e-06
9.16182e-06
9.16906e-06
9.16432e-06
9.15025e-06
9.14121e-06
9.14456e-06
9.16215e-06
9.20152e-06
9.26005e-06
9.32191e-06
9.35843e-06
9.34981e-06
9.30714e-06
9.27972e-06
9.336e-06
9.51959e-06
9.81243e-06
1.01637e-05
1.05065e-05
1.08067e-05
1.11253e-05
1.46382e-05
9.31637e-05
0.000322641
0.000452029
0.000488495
0.00047405
0.000429253
0.000368035
0.000307494
0.000243979
9.10478e-06
9.10327e-06
9.10375e-06
9.10343e-06
9.10335e-06
9.10326e-06
9.10322e-06
9.1032e-06
9.1032e-06
9.10323e-06
9.10327e-06
9.10332e-06
9.10337e-06
9.10346e-06
9.10342e-06
9.10351e-06
9.10369e-06
9.10395e-06
9.10433e-06
9.10488e-06
9.10565e-06
9.10672e-06
9.10814e-06
9.10975e-06
9.1112e-06
9.11258e-06
9.11496e-06
9.11973e-06
9.12672e-06
9.1331e-06
9.13533e-06
9.1331e-06
9.13124e-06
9.13537e-06
9.14607e-06
9.15812e-06
9.16342e-06
9.15703e-06
9.14855e-06
9.14425e-06
9.1491e-06
9.16987e-06
9.21154e-06
9.27291e-06
9.34055e-06
9.38905e-06
9.3947e-06
9.36013e-06
9.33347e-06
9.38948e-06
9.57407e-06
9.88529e-06
1.02639e-05
1.0643e-05
1.1016e-05
1.35382e-05
7.64944e-05
0.000312714
0.000461598
0.000506309
0.000495684
0.000452217
0.000391891
0.000327819
0.000279182
0.000243529
9.10489e-06
9.10331e-06
9.10382e-06
9.10349e-06
9.10342e-06
9.10333e-06
9.10328e-06
9.10326e-06
9.10326e-06
9.10329e-06
9.10333e-06
9.10339e-06
9.10345e-06
9.1035e-06
9.10359e-06
9.10354e-06
9.10368e-06
9.10392e-06
9.10427e-06
9.10478e-06
9.10549e-06
9.10645e-06
9.10774e-06
9.1094e-06
9.11123e-06
9.11285e-06
9.11435e-06
9.11686e-06
9.12186e-06
9.12899e-06
9.13528e-06
9.13704e-06
9.13445e-06
9.13223e-06
9.13519e-06
9.14389e-06
9.15338e-06
9.15575e-06
9.15377e-06
9.14988e-06
9.15179e-06
9.16229e-06
9.18606e-06
9.22821e-06
9.29244e-06
9.37103e-06
9.43647e-06
9.45578e-06
9.42635e-06
9.39964e-06
9.4552e-06
9.64917e-06
9.97477e-06
1.03838e-05
1.08308e-05
1.27322e-05
6.1561e-05
0.000299867
0.000470173
0.000524146
0.000517716
0.000475918
0.000415718
0.000352045
0.000300037
0.000279438
0.000270453
9.10507e-06
9.10337e-06
9.10389e-06
9.10355e-06
9.10348e-06
9.10339e-06
9.10334e-06
9.10332e-06
9.10332e-06
9.10335e-06
9.1034e-06
9.10346e-06
9.10352e-06
9.10359e-06
9.10363e-06
9.10372e-06
9.1037e-06
9.10389e-06
9.10421e-06
9.10468e-06
9.10536e-06
9.10626e-06
9.10743e-06
9.10895e-06
9.11086e-06
9.11292e-06
9.11471e-06
9.11629e-06
9.11889e-06
9.12398e-06
9.13108e-06
9.13694e-06
9.13823e-06
9.13551e-06
9.13314e-06
9.135e-06
9.14142e-06
9.14734e-06
9.15199e-06
9.15331e-06
9.15806e-06
9.16711e-06
9.18276e-06
9.20883e-06
9.25156e-06
9.32055e-06
9.40941e-06
9.48871e-06
9.52092e-06
9.50102e-06
9.48436e-06
9.5463e-06
9.74084e-06
1.00846e-05
1.05506e-05
1.205e-05
4.89812e-05
0.000283995
0.000477459
0.000541838
0.000540097
0.000500115
0.000440342
0.000376347
0.000324783
0.000300746
0.000307026
0.00031068
9.10528e-06
9.10346e-06
9.10396e-06
9.10361e-06
9.10355e-06
9.10345e-06
9.1034e-06
9.10338e-06
9.10339e-06
9.10342e-06
9.10347e-06
9.10352e-06
9.10359e-06
9.10366e-06
9.10372e-06
9.10377e-06
9.10389e-06
9.10392e-06
9.10418e-06
9.1046e-06
9.10522e-06
9.1061e-06
9.10721e-06
9.10862e-06
9.11039e-06
9.11254e-06
9.11484e-06
9.11676e-06
9.1184e-06
9.1211e-06
9.12613e-06
9.13287e-06
9.13806e-06
9.13888e-06
9.13644e-06
9.13409e-06
9.13492e-06
9.13878e-06
9.14576e-06
9.15202e-06
9.15973e-06
9.1706e-06
9.18691e-06
9.20967e-06
9.23671e-06
9.27763e-06
9.34603e-06
9.44253e-06
9.5383e-06
9.59148e-06
9.5984e-06
9.59467e-06
9.65266e-06
9.85547e-06
1.02364e-05
1.14162e-05
3.86987e-05
0.000265594
0.00048301
0.000559237
0.000562739
0.000524818
0.000465519
0.000401482
0.000349648
0.000325974
0.000328498
0.000347747
0.000351711
9.10548e-06
9.10356e-06
9.10403e-06
9.10368e-06
9.10362e-06
9.10352e-06
9.10347e-06
9.10344e-06
9.10345e-06
9.10348e-06
9.10353e-06
9.10359e-06
9.10366e-06
9.10374e-06
9.1038e-06
9.10386e-06
9.10393e-06
9.10411e-06
9.1042e-06
9.10455e-06
9.10511e-06
9.10593e-06
9.10702e-06
9.10837e-06
9.11006e-06
9.11206e-06
9.11446e-06
9.11695e-06
9.11898e-06
9.12078e-06
9.12348e-06
9.12829e-06
9.13438e-06
9.13854e-06
9.13907e-06
9.13704e-06
9.13496e-06
9.13568e-06
9.14137e-06
9.1491e-06
9.1566e-06
9.16762e-06
9.18551e-06
9.21179e-06
9.23879e-06
9.26204e-06
9.29591e-06
9.36363e-06
9.47147e-06
9.59128e-06