/*--------------------------------*- C++ -*----------------------------------*\
  =========                 |
  \\      /  F ield         | OpenFOAM: The Open Source CFD Toolbox
   \\    /   O peration     | Website:  https://openfoam.org
    \\  /    A nd           | Version:  dev
     \\/     M anipulation  |
\*---------------------------------------------------------------------------*/
FoamFile
{
    version     2.0;
    format      ascii;
    class       volScalarField;
    location    "50";
    object      nuTilda;
}
// * * * * * * * * * * * * * * * * * * * * * * * * * * * * * * * * * * * * * //

dimensions      [0 2 -1 0 0 0 0];

internalField   nonuniform List<scalar> 
29380
(
6.00283e-05
6.00252e-05
6.0007e-05
6.00237e-05
6.00062e-05
6.00191e-05
6.0022e-05
6.00058e-05
6.0017e-05
6.00096e-05
6.00204e-05
6.00053e-05
6.0016e-05
6.00085e-05
6.0012e-05
6.00188e-05
6.00049e-05
6.00148e-05
6.00079e-05
6.00106e-05
6.00091e-05
6.00174e-05
6.00045e-05
6.00138e-05
6.00073e-05
6.00099e-05
6.00079e-05
6.00094e-05
6.0016e-05
6.00041e-05
6.00128e-05
6.00067e-05
6.00092e-05
6.00074e-05
6.00081e-05
6.00085e-05
6.00148e-05
6.00038e-05
6.00119e-05
6.00062e-05
6.00085e-05
6.00067e-05
6.00076e-05
6.00072e-05
6.00084e-05
6.00137e-05
6.00035e-05
6.0011e-05
6.00057e-05
6.00078e-05
6.00062e-05
6.00069e-05
6.00067e-05
6.0007e-05
6.00086e-05
6.00127e-05
6.00032e-05
6.00102e-05
6.00053e-05
6.00073e-05
6.00057e-05
6.00063e-05
6.0006e-05
6.00065e-05
6.00074e-05
6.00105e-05
6.00117e-05
6.00029e-05
6.00094e-05
6.00048e-05
6.00067e-05
6.00053e-05
6.00058e-05
6.00055e-05
6.00058e-05
6.00068e-05
6.00092e-05
6.0014e-05
6.00108e-05
6.00027e-05
6.00088e-05
6.00045e-05
6.00062e-05
6.00048e-05
6.00053e-05
6.0005e-05
6.00053e-05
6.00062e-05
6.00087e-05
6.00124e-05
6.00196e-05
6.001e-05
6.00024e-05
6.00081e-05
6.00041e-05
6.00058e-05
6.00045e-05
6.00049e-05
6.00046e-05
6.00049e-05
6.00057e-05
6.0008e-05
6.00117e-05
6.00178e-05
6.00284e-05
6.00092e-05
6.00022e-05
6.00075e-05
6.00038e-05
6.00053e-05
6.00041e-05
6.00045e-05
6.00042e-05
6.00045e-05
6.00052e-05
6.00074e-05
6.00109e-05
6.0017e-05
6.00262e-05
6.00428e-05
6.00085e-05
6.0002e-05
6.00069e-05
6.00035e-05
6.00049e-05
6.00038e-05
6.00041e-05
6.00038e-05
6.00041e-05
6.00048e-05
6.00068e-05
6.00103e-05
6.0016e-05
6.0025e-05
6.00395e-05
6.00639e-05
6.00078e-05
6.00019e-05
6.00064e-05
6.00032e-05
6.00045e-05
6.00035e-05
6.00038e-05
6.00035e-05
6.00038e-05
6.00045e-05
6.00063e-05
6.00097e-05
6.00151e-05
6.00237e-05
6.00376e-05
6.0059e-05
6.00933e-05
6.00071e-05
6.00018e-05
6.0006e-05
6.0003e-05
6.00042e-05
6.00032e-05
6.00035e-05
6.00032e-05
6.00035e-05
6.00042e-05
6.00059e-05
6.00092e-05
6.00143e-05
6.00225e-05
6.00357e-05
6.00558e-05
6.00863e-05
6.01346e-05
6.00064e-05
6.00016e-05
6.00055e-05
6.00028e-05
6.00039e-05
6.00029e-05
6.00032e-05
6.00029e-05
6.00032e-05
6.00039e-05
6.00055e-05
6.00087e-05
6.00135e-05
6.00214e-05
6.00338e-05
6.00525e-05
6.00821e-05
6.01222e-05
6.01926e-05
6.00056e-05
6.00014e-05
6.00051e-05
6.00026e-05
6.00036e-05
6.00027e-05
6.00029e-05
6.00027e-05
6.00029e-05
6.00036e-05
6.00052e-05
6.00082e-05
6.00128e-05
6.00202e-05
6.00319e-05
6.00496e-05
6.00772e-05
6.01159e-05
6.0174e-05
6.02695e-05
6.00047e-05
6.00012e-05
6.00046e-05
6.00023e-05
6.00034e-05
6.00025e-05
6.00027e-05
6.00024e-05
6.00027e-05
6.00034e-05
6.00049e-05
6.00078e-05
6.00121e-05
6.00191e-05
6.00302e-05
6.00468e-05
6.00725e-05
6.01091e-05
6.01646e-05
6.02416e-05
6.03692e-05
6.00039e-05
6.0001e-05
6.0004e-05
6.0002e-05
6.00031e-05
6.00023e-05
6.00025e-05
6.00023e-05
6.00024e-05
6.00031e-05
6.00046e-05
6.00074e-05
6.00116e-05
6.00181e-05
6.00285e-05
6.00442e-05
6.0068e-05
6.01031e-05
6.01536e-05
6.02277e-05
6.03296e-05
6.04942e-05
6.00031e-05
6.0001e-05
6.00035e-05
6.00017e-05
6.00028e-05
6.00021e-05
6.00023e-05
6.00021e-05
6.00022e-05
6.00028e-05
6.00042e-05
6.00069e-05
6.0011e-05
6.00172e-05
6.00269e-05
6.00417e-05
6.00639e-05
6.00971e-05
6.01434e-05
6.02123e-05
6.031e-05
6.04395e-05
6.0647e-05
6.00026e-05
6.0001e-05
6.00031e-05
6.00015e-05
6.00024e-05
6.00019e-05
6.00022e-05
6.00021e-05
6.00021e-05
6.00025e-05
6.00038e-05
6.00064e-05
6.00103e-05
6.00164e-05
6.00255e-05
6.00394e-05
6.00601e-05
6.00912e-05
6.01338e-05
6.01985e-05
6.0288e-05
6.04126e-05
6.05732e-05
6.08293e-05
6.00025e-05
6.0001e-05
6.00028e-05
6.00013e-05
6.00021e-05
6.00016e-05
6.00019e-05
6.0002e-05
6.0002e-05
6.00024e-05
6.00035e-05
6.00058e-05
6.00096e-05
6.00155e-05
6.0024e-05
6.00372e-05
6.00567e-05
6.00854e-05
6.01251e-05
6.01853e-05
6.02682e-05
6.03825e-05
6.05373e-05
6.07321e-05
6.10415e-05
6.00025e-05
6.0001e-05
6.00027e-05
6.00012e-05
6.00018e-05
6.00014e-05
6.00017e-05
6.00018e-05
6.0002e-05
6.00023e-05
6.00033e-05
6.00053e-05
6.00088e-05
6.00144e-05
6.00226e-05
6.0035e-05
6.00535e-05
6.008e-05
6.01174e-05
6.01728e-05
6.02495e-05
6.03555e-05
6.0497e-05
6.06852e-05
6.09161e-05
6.12826e-05
6.00022e-05
6.0001e-05
6.00025e-05
6.00013e-05
6.00017e-05
6.00013e-05
6.00015e-05
6.00016e-05
6.00018e-05
6.00023e-05
6.00032e-05
6.00049e-05
6.00081e-05
6.00132e-05
6.0021e-05
6.00328e-05
6.00503e-05
6.00751e-05
6.01105e-05
6.01611e-05
6.02322e-05
6.033e-05
6.0461e-05
6.06325e-05
6.08561e-05
6.11243e-05
6.15506e-05
6.00018e-05
6.00009e-05
6.00023e-05
6.00013e-05
6.00016e-05
6.00012e-05
6.00013e-05
6.00013e-05
6.00016e-05
6.00021e-05
6.00031e-05
6.00048e-05
6.00075e-05
6.00121e-05
6.00193e-05
6.00303e-05
6.0047e-05
6.00706e-05
6.0104e-05
6.01504e-05
6.02163e-05
6.03064e-05
6.04271e-05
6.05855e-05
6.07886e-05
6.1049e-05
6.13546e-05
6.1842e-05
6.00014e-05
6.00008e-05
6.0002e-05
6.00012e-05
6.00016e-05
6.00012e-05
6.00012e-05
6.00012e-05
6.00014e-05
6.00019e-05
6.0003e-05
6.00046e-05
6.00072e-05
6.00112e-05
6.00176e-05
6.00278e-05
6.00435e-05
6.0066e-05
6.00976e-05
6.01405e-05
6.02019e-05
6.02849e-05
6.03958e-05
6.05414e-05
6.07286e-05
6.09643e-05
6.1262e-05
6.16037e-05
6.21528e-05
6.00013e-05
6.00008e-05
6.00016e-05
6.0001e-05
6.00015e-05
6.00012e-05
6.00012e-05
6.00011e-05
6.00012e-05
6.00016e-05
6.00027e-05
6.00044e-05
6.00071e-05
6.00107e-05
6.00163e-05
6.00253e-05
6.00397e-05
6.00611e-05
6.00909e-05
6.01313e-05
6.01886e-05
6.02655e-05
6.03672e-05
6.05007e-05
6.06724e-05
6.08892e-05
6.11576e-05
6.14919e-05
6.18678e-05
6.24781e-05
6.00013e-05
6.00008e-05
6.00013e-05
6.00009e-05
6.00013e-05
6.00011e-05
6.00012e-05
6.00011e-05
6.00011e-05
6.00014e-05
6.00023e-05
6.0004e-05
6.00068e-05
6.00104e-05
6.00155e-05
6.00234e-05
6.00361e-05
6.00558e-05
6.00838e-05
6.01221e-05
6.01759e-05
6.02477e-05
6.03415e-05
6.04636e-05
6.06207e-05
6.0819e-05
6.10653e-05
6.13655e-05
6.17351e-05
6.21426e-05
6.28128e-05
6.00014e-05
6.00008e-05
6.00012e-05
6.00008e-05
6.00011e-05
6.0001e-05
6.00011e-05
6.00011e-05
6.00012e-05
6.00013e-05
6.0002e-05
6.00035e-05
6.00062e-05
6.001e-05
6.0015e-05
6.00222e-05
6.00331e-05
6.00505e-05
6.00763e-05
6.01125e-05
6.01627e-05
6.02306e-05
6.03181e-05
6.04302e-05
6.05735e-05
6.07545e-05
6.09792e-05
6.12541e-05
6.15847e-05
6.19875e-05
6.24235e-05
6.3152e-05
6.00014e-05
6.00009e-05
6.00013e-05
6.00009e-05
6.00009e-05
6.00008e-05
6.0001e-05
6.00011e-05
6.00012e-05
6.00014e-05
6.00019e-05
6.00031e-05
6.00054e-05
6.00092e-05
6.00143e-05
6.00214e-05
6.00311e-05
6.00462e-05
6.00691e-05
6.01023e-05
6.01487e-05
6.0213e-05
6.02958e-05
6.04e-05
6.05311e-05
6.06958e-05
6.09003e-05
6.11504e-05
6.14524e-05
6.18113e-05
6.22449e-05
6.27064e-05
6.34911e-05
6.00013e-05
6.00009e-05
6.00013e-05
6.00009e-05
6.00009e-05
6.00008e-05
6.00008e-05
6.0001e-05
6.00012e-05
6.00014e-05
6.00018e-05
6.00029e-05
6.00048e-05
6.00081e-05
6.00132e-05
6.00204e-05
6.00299e-05
6.00432e-05
6.00629e-05
6.00923e-05
6.0134e-05
6.0194e-05
6.0273e-05
6.03716e-05
6.04929e-05
6.0643e-05
6.08286e-05
6.10555e-05
6.13294e-05
6.16565e-05
6.20414e-05
6.25033e-05
6.2987e-05
6.38256e-05
6.00012e-05
6.00009e-05
6.00013e-05
6.0001e-05
6.0001e-05
6.00008e-05
6.00008e-05
6.00009e-05
6.00011e-05
6.00014e-05
6.00019e-05
6.00029e-05
6.00044e-05
6.00071e-05
6.00118e-05
6.00189e-05
6.00286e-05
6.00412e-05
6.00586e-05
6.00836e-05
6.01197e-05
6.01737e-05
6.02483e-05
6.03428e-05
6.04573e-05
6.05956e-05
6.07641e-05
6.09693e-05
6.12171e-05
6.15128e-05
6.18628e-05
6.22713e-05
6.27591e-05
6.32617e-05
6.41519e-05
6.00012e-05
6.00009e-05
6.00012e-05
6.0001e-05
6.00011e-05
6.00009e-05
6.00008e-05
6.00008e-05
6.00009e-05
6.00012e-05
6.00018e-05
6.00029e-05
6.00043e-05
6.00065e-05
6.00105e-05
6.0017e-05
6.00267e-05
6.00394e-05
6.00556e-05
6.00775e-05
6.01079e-05
6.01538e-05
6.02215e-05
6.03115e-05
6.04216e-05
6.05518e-05
6.07064e-05
6.08921e-05
6.11154e-05
6.1382e-05
6.16974e-05
6.20681e-05
6.24977e-05
6.30087e-05
6.35275e-05
6.44666e-05
6.00013e-05
6.00009e-05
6.0001e-05
6.00009e-05
6.00011e-05
6.00009e-05
6.00009e-05
6.00009e-05
6.00009e-05
6.00011e-05
6.00017e-05
6.00028e-05
6.00043e-05
6.00063e-05
6.00096e-05
6.00151e-05
6.00241e-05
6.00368e-05
6.0053e-05
6.00734e-05
6.00998e-05
6.0137e-05
6.01947e-05
6.02771e-05
6.03828e-05
6.05082e-05
6.06533e-05
6.0823e-05
6.10243e-05
6.12637e-05
6.1547e-05
6.188e-05
6.22691e-05
6.27175e-05
6.32496e-05
6.37816e-05
6.47665e-05
6.00014e-05
6.0001e-05
6.0001e-05
6.00009e-05
6.0001e-05
6.00009e-05
6.0001e-05
6.00009e-05
6.00009e-05
6.0001e-05
6.00015e-05
6.00025e-05
6.00041e-05
6.00062e-05
6.00092e-05
6.00138e-05
6.00215e-05
6.00334e-05
6.00496e-05
6.007e-05
6.00946e-05
6.01254e-05
6.01717e-05
6.02419e-05
6.03396e-05
6.0461e-05
6.06011e-05
6.076e-05
6.09431e-05
6.1158e-05
6.14114e-05
6.17093e-05
6.20578e-05
6.24633e-05
6.29284e-05
6.34791e-05
6.40214e-05
6.50484e-05
6.00015e-05
6.00011e-05
6.0001e-05
6.00009e-05
6.00009e-05
6.00009e-05
6.0001e-05
6.0001e-05
6.0001e-05
6.0001e-05
6.00014e-05
6.00022e-05
6.00038e-05
6.0006e-05
6.00088e-05
6.00129e-05
6.00194e-05
6.00298e-05
6.00451e-05
6.00655e-05
6.00904e-05
6.01186e-05
6.01557e-05
6.02111e-05
6.02947e-05
6.04083e-05
6.05448e-05
6.06984e-05
6.08694e-05
6.10641e-05
6.12905e-05
6.15557e-05
6.18663e-05
6.22284e-05
6.26485e-05
6.31282e-05
6.36951e-05
6.42445e-05
6.53133e-05
6.00016e-05
6.00011e-05
6.00011e-05
6.0001e-05
6.00009e-05
6.00009e-05
6.00009e-05
6.0001e-05
6.0001e-05
6.00011e-05
6.00013e-05
6.0002e-05
6.00034e-05
6.00055e-05
6.00084e-05
6.00123e-05
6.00179e-05
6.00268e-05
6.00403e-05
6.00597e-05
6.00849e-05
6.0114e-05
6.01467e-05
6.01893e-05
6.02546e-05
6.03526e-05
6.04814e-05
6.06323e-05
6.07979e-05
6.09791e-05
6.11833e-05
6.14192e-05
6.16943e-05
6.20158e-05
6.23899e-05
6.28227e-05
6.33148e-05
6.38951e-05
6.44591e-05
6.56032e-05
6.00018e-05
6.00012e-05
6.00012e-05
6.0001e-05
6.00009e-05
6.00009e-05
6.00009e-05
6.0001e-05
6.00011e-05
6.00012e-05
6.00014e-05
6.00019e-05
6.00031e-05
6.00049e-05
6.00078e-05
6.00116e-05
6.00169e-05
6.00246e-05
6.00362e-05
6.00534e-05
6.00775e-05
6.0108e-05
6.01413e-05
6.01775e-05
6.0226e-05
6.03019e-05
6.04136e-05
6.05574e-05
6.07214e-05
6.08971e-05
6.10867e-05
6.12985e-05
6.15419e-05
6.18252e-05
6.21562e-05
6.25407e-05
6.29843e-05
6.34863e-05
6.40912e-05
6.46936e-05
6.59074e-05
6.00019e-05
6.00013e-05
6.00012e-05
6.00011e-05
6.0001e-05
6.0001e-05
6.00009e-05
6.00009e-05
6.00011e-05
6.00012e-05
6.00014e-05
6.00019e-05
6.00029e-05
6.00045e-05
6.00071e-05
6.00108e-05
6.00158e-05
6.00228e-05
6.00329e-05
6.00478e-05
6.00693e-05
6.00993e-05
6.01348e-05
6.01714e-05
6.02107e-05
6.02648e-05
6.03507e-05
6.04761e-05
6.06341e-05
6.08096e-05
6.0994e-05
6.11903e-05
6.14078e-05
6.16569e-05
6.19471e-05
6.22861e-05
6.26793e-05
6.31315e-05
6.36581e-05
6.43067e-05
6.49522e-05
6.62048e-05
6.00021e-05
6.00014e-05
6.00013e-05
6.00012e-05
6.00011e-05
6.00011e-05
6.0001e-05
6.0001e-05
6.00011e-05
6.00012e-05
6.00014e-05
6.00019e-05
6.00027e-05
6.00041e-05
6.00064e-05
6.00099e-05
6.00147e-05
6.00211e-05
6.00302e-05
6.00432e-05
6.00618e-05
6.00889e-05
6.01246e-05
6.01646e-05
6.02036e-05
6.02447e-05
6.03038e-05
6.03995e-05
6.05382e-05
6.07094e-05
6.08952e-05
6.10867e-05
6.12878e-05
6.15093e-05
6.17628e-05
6.20587e-05
6.24043e-05
6.28043e-05
6.32815e-05
6.38507e-05
6.45373e-05
6.5191e-05
6.64985e-05
6.00023e-05
6.00015e-05
6.00014e-05
6.00013e-05
6.00012e-05
6.00011e-05
6.00011e-05
6.0001e-05
6.00011e-05
6.00012e-05
6.00015e-05
6.00019e-05
6.00026e-05
6.00038e-05
6.00059e-05
6.00091e-05
6.00136e-05
6.00196e-05
6.00277e-05
6.00392e-05
6.00554e-05
6.00785e-05
6.01114e-05
6.0153e-05
6.01965e-05
6.02362e-05
6.02782e-05
6.03416e-05
6.04466e-05
6.05985e-05
6.07815e-05
6.09762e-05
6.11734e-05
6.13779e-05
6.16019e-05
6.18588e-05
6.21591e-05
6.25095e-05
6.29337e-05
6.3454e-05
6.40473e-05
6.47597e-05
6.54452e-05
6.67897e-05
6.00026e-05
6.00016e-05
6.00015e-05
6.00014e-05
6.00012e-05
6.00012e-05
6.00012e-05
6.00012e-05
6.00012e-05
6.00013e-05
6.00015e-05
6.00019e-05
6.00025e-05
6.00036e-05
6.00053e-05
6.00082e-05
6.00126e-05
6.00182e-05
6.00255e-05
6.00356e-05
6.00497e-05
6.00694e-05
6.00977e-05
6.01369e-05
6.01836e-05
6.02291e-05
6.02684e-05
6.031e-05
6.03767e-05
6.04911e-05
6.06546e-05
6.08486e-05
6.10512e-05
6.12529e-05
6.14593e-05
6.16848e-05
6.1944e-05
6.22471e-05
6.2621e-05
6.30856e-05
6.3624e-05
6.42504e-05
6.49899e-05
6.5692e-05
6.70806e-05
6.00029e-05
6.00017e-05
6.00016e-05
6.00015e-05
6.00013e-05
6.00013e-05
6.00012e-05
6.00013e-05
6.00013e-05
6.00013e-05
6.00015e-05
6.00019e-05
6.00025e-05
6.00034e-05
6.00048e-05
6.00073e-05
6.00114e-05
6.0017e-05
6.00239e-05
6.00327e-05
6.00447e-05
6.00615e-05
6.00852e-05
6.01194e-05
6.01647e-05
6.02155e-05
6.0262e-05
6.02991e-05
6.03387e-05
6.04082e-05
6.05306e-05
6.07051e-05
6.09093e-05
6.11191e-05
6.13241e-05
6.15314e-05
6.17574e-05
6.20175e-05
6.23439e-05
6.27526e-05
6.32365e-05
6.38062e-05
6.44501e-05
6.52176e-05
6.594e-05
6.73497e-05
6.00031e-05
6.00018e-05
6.00018e-05
6.00016e-05
6.00014e-05
6.00013e-05
6.00013e-05
6.00013e-05
6.00013e-05
6.00014e-05
6.00016e-05
6.0002e-05
6.00025e-05
6.00033e-05
6.00044e-05
6.00063e-05
6.00099e-05
6.00155e-05
6.00226e-05
6.00308e-05
6.0041e-05
6.00549e-05
6.00745e-05
6.01029e-05
6.0143e-05
6.0194e-05
6.02483e-05
6.02939e-05
6.0327e-05
6.0363e-05
6.04341e-05
6.05638e-05
6.07486e-05
6.09627e-05
6.11789e-05
6.13862e-05
6.15935e-05
6.1819e-05
6.21023e-05
6.24564e-05
6.28885e-05
6.33946e-05
6.39856e-05
6.46553e-05
6.54342e-05
6.61565e-05
6.75949e-05
6.00034e-05
6.00019e-05
6.0002e-05
6.00017e-05
6.00015e-05
6.00014e-05
6.00014e-05
6.00014e-05
6.00014e-05
6.00015e-05
6.00016e-05
6.0002e-05
6.00026e-05
6.00033e-05
6.00042e-05
6.00056e-05
6.00084e-05
6.00134e-05
6.00207e-05
6.00293e-05
6.00388e-05
6.00503e-05
6.0066e-05
6.00886e-05
6.01219e-05
6.01681e-05
6.02244e-05
6.02808e-05
6.03238e-05
6.03504e-05
6.03816e-05
6.04533e-05
6.05897e-05
6.07844e-05
6.10081e-05
6.123e-05
6.14389e-05
6.16454e-05
6.18935e-05
6.21994e-05
6.25776e-05
6.30264e-05
6.35567e-05
6.41621e-05
6.48392e-05
6.56316e-05
6.63664e-05
6.78196e-05
6.00036e-05
6.0002e-05
6.00021e-05
6.00018e-05
6.00016e-05
6.00016e-05
6.00015e-05
6.00015e-05
6.00015e-05
6.00016e-05
6.00017e-05
6.0002e-05
6.00026e-05
6.00034e-05
6.00043e-05
6.00054e-05
6.00072e-05
6.0011e-05
6.00177e-05
6.0027e-05
6.00372e-05
6.00479e-05
6.00605e-05
6.00776e-05
6.01035e-05
6.01422e-05
6.01941e-05
6.02548e-05
6.03118e-05
6.03499e-05
6.03686e-05
6.03937e-05
6.04651e-05
6.06072e-05
6.08119e-05
6.10449e-05
6.12721e-05
6.1482e-05
6.17105e-05
6.19798e-05
6.2306e-05
6.27017e-05
6.31678e-05
6.37068e-05
6.4327e-05
6.50189e-05
6.58166e-05
6.65404e-05
6.79975e-05
6.00037e-05
6.00021e-05
6.00023e-05
6.0002e-05
6.00018e-05
6.00017e-05
6.00016e-05
6.00015e-05
6.00016e-05
6.00016e-05
6.00017e-05
6.00019e-05
6.00024e-05
6.00033e-05
6.00044e-05
6.00055e-05
6.00068e-05
6.00092e-05
6.00143e-05
6.0023e-05
6.00345e-05
6.00464e-05
6.00581e-05
6.0071e-05
6.00895e-05
6.01191e-05
6.01626e-05
6.02199e-05
6.0284e-05
6.03399e-05
6.03714e-05
6.03807e-05
6.03986e-05
6.04685e-05
6.06161e-05
6.08307e-05
6.10728e-05
6.13048e-05
6.15376e-05
6.17885e-05
6.20747e-05
6.24183e-05
6.28219e-05
6.3301e-05
6.38557e-05
6.4481e-05
6.51674e-05
6.5956e-05
6.66712e-05
6.81403e-05
6.00038e-05
6.00021e-05
6.00024e-05
6.00021e-05
6.00019e-05
6.00018e-05
6.00017e-05
6.00017e-05
6.00017e-05
6.00017e-05
6.00018e-05
6.0002e-05
6.00023e-05
6.0003e-05
6.00042e-05
6.00056e-05
6.0007e-05
6.00085e-05
6.00116e-05
6.00182e-05
6.00293e-05
6.00431e-05
6.00567e-05
6.00688e-05
6.00817e-05
6.01017e-05
6.01344e-05
6.01826e-05
6.02443e-05
6.0311e-05
6.03643e-05
6.03876e-05
6.03862e-05
6.03954e-05
6.0463e-05
6.06161e-05
6.08405e-05
6.10915e-05
6.13491e-05
6.16073e-05
6.18752e-05
6.21742e-05
6.25243e-05
6.29429e-05
6.34278e-05
6.39791e-05
6.46008e-05
6.5287e-05
6.60776e-05
6.67935e-05
6.82925e-05
6.00039e-05
6.00022e-05
6.00025e-05
6.00022e-05
6.0002e-05
6.00019e-05
6.00018e-05
6.00018e-05
6.00018e-05
6.00018e-05
6.00019e-05
6.00021e-05
6.00023e-05
6.00028e-05
6.00038e-05
6.00054e-05
6.00073e-05
6.00088e-05
6.00106e-05
6.00144e-05
6.00229e-05
6.00366e-05
6.00529e-05
6.00679e-05
6.00798e-05
6.00923e-05
6.01132e-05
6.01488e-05
6.02009e-05
6.02667e-05
6.03346e-05
6.0384e-05
6.03978e-05
6.03844e-05
6.03838e-05
6.04486e-05
6.06071e-05
6.08413e-05
6.11208e-05
6.14086e-05
6.16858e-05
6.19632e-05
6.22725e-05
6.26301e-05
6.30455e-05
6.35289e-05
6.40858e-05
6.47161e-05
6.54066e-05
6.62016e-05
6.69367e-05
6.84802e-05
6.00043e-05
6.00022e-05
6.00026e-05
6.00023e-05
6.00021e-05
6.0002e-05
6.00019e-05
6.00019e-05
6.00019e-05
6.00019e-05
6.0002e-05
6.00022e-05
6.00024e-05
6.00027e-05
6.00034e-05
6.00048e-05
6.0007e-05
6.00092e-05
6.0011e-05
6.00129e-05
6.00176e-05
6.00282e-05
6.00449e-05
6.00638e-05
6.00797e-05
6.00906e-05
6.01022e-05
6.01236e-05
6.01614e-05
6.0217e-05
6.02859e-05
6.0354e-05
6.03981e-05
6.04016e-05
6.03751e-05
6.03638e-05
6.04254e-05
6.05891e-05
6.08515e-05
6.11659e-05
6.1475e-05
6.17648e-05
6.20531e-05
6.23612e-05
6.27165e-05
6.31374e-05
6.3631e-05
6.41955e-05
6.4827e-05
6.55162e-05
6.63245e-05
6.70886e-05
6.87088e-05
6.00044e-05
6.00024e-05
6.00027e-05
6.00023e-05
6.00022e-05
6.00021e-05
6.0002e-05
6.0002e-05
6.0002e-05
6.0002e-05
6.00021e-05
6.00023e-05
6.00025e-05
6.00028e-05
6.00031e-05
6.00041e-05
6.00061e-05
6.00089e-05
6.00116e-05
6.00135e-05
6.00155e-05
6.00213e-05
6.00343e-05
6.00541e-05
6.00754e-05
6.00913e-05
6.01009e-05
6.0111e-05
6.01322e-05
6.01715e-05
6.02298e-05
6.0301e-05
6.03682e-05
6.04066e-05
6.0399e-05
6.03583e-05
6.03357e-05
6.03938e-05
6.05795e-05
6.08776e-05
6.1215e-05
6.15433e-05
6.18419e-05
6.213e-05
6.24428e-05
6.28062e-05
6.32332e-05
6.37268e-05
6.42861e-05
6.49084e-05
6.55991e-05
6.64243e-05
6.72412e-05
6.91871e-05
6.00046e-05
6.00025e-05
6.0003e-05
6.00024e-05
6.00023e-05
6.00022e-05
6.00021e-05
6.00021e-05
6.00021e-05
6.00021e-05
6.00022e-05
6.00023e-05
6.00026e-05
6.00029e-05
6.00032e-05
6.00038e-05
6.00051e-05
6.00078e-05
6.00112e-05
6.00144e-05
6.00163e-05
6.00185e-05
6.00255e-05
6.00409e-05
6.00638e-05
6.0087e-05
6.01028e-05
6.01102e-05
6.01181e-05
6.01384e-05
6.01784e-05
6.02387e-05
6.03112e-05
6.0377e-05
6.04093e-05
6.03898e-05
6.03344e-05
6.03e-05
6.03692e-05
6.05853e-05
6.09059e-05
6.12656e-05
6.16045e-05
6.19137e-05
6.22127e-05
6.25304e-05
6.2891e-05
6.33089e-05
6.37902e-05
6.43345e-05
6.49485e-05
6.56486e-05
6.65083e-05
6.75295e-05
7.71428e-05
6.00048e-05
6.00026e-05
6.0003e-05
6.00026e-05
6.00024e-05
6.00023e-05
6.00022e-05
6.00022e-05
6.00022e-05
6.00023e-05
6.00023e-05
6.00024e-05
6.00026e-05
6.0003e-05
6.00033e-05
6.00038e-05
6.00045e-05
6.00064e-05
6.00098e-05
6.0014e-05
6.00176e-05
6.00195e-05
6.00219e-05
6.003e-05
6.00479e-05
6.00738e-05
6.00986e-05
6.01134e-05
6.0118e-05
6.01231e-05
6.01417e-05
6.01817e-05
6.0243e-05
6.03162e-05
6.03804e-05
6.04062e-05
6.03744e-05
6.03039e-05
6.0271e-05
6.03605e-05
6.05934e-05
6.09328e-05
6.131e-05
6.1671e-05
6.19945e-05
6.22944e-05
6.26013e-05
6.29465e-05
6.33466e-05
6.38113e-05
6.43438e-05
6.49655e-05
6.56896e-05
6.66885e-05
7.23272e-05
0.000128927
6.00049e-05
6.00027e-05
6.00032e-05
6.00027e-05
6.00026e-05
6.00023e-05
6.00023e-05
6.00023e-05
6.00023e-05
6.00024e-05
6.00024e-05
6.00025e-05
6.00027e-05
6.0003e-05
6.00034e-05
6.00039e-05
6.00045e-05
6.00055e-05
6.00079e-05
6.00121e-05
6.00173e-05
6.00212e-05
6.0023e-05
6.00254e-05
6.00346e-05
6.00551e-05
6.00836e-05
6.01095e-05
6.01227e-05
6.01241e-05
6.01257e-05
6.0142e-05
6.01811e-05
6.02425e-05
6.03158e-05
6.03782e-05
6.03973e-05
6.03531e-05
6.02809e-05
6.0258e-05
6.03541e-05
6.05986e-05
6.09601e-05
6.13634e-05
6.17404e-05
6.20641e-05
6.23518e-05
6.26432e-05
6.2969e-05
6.33535e-05
6.38065e-05
6.43472e-05
6.49883e-05
6.58057e-05
6.99692e-05
0.00011378
0.000245236
6.00051e-05
6.00027e-05
6.00033e-05
6.00028e-05
6.00027e-05
6.00026e-05
6.00024e-05
6.00024e-05
6.00024e-05
6.00025e-05
6.00025e-05
6.00026e-05
6.00028e-05
6.0003e-05
6.00034e-05
6.0004e-05
6.00046e-05
6.00053e-05
6.00067e-05
6.00097e-05
6.00148e-05
6.00209e-05
6.00252e-05
6.00268e-05
6.00291e-05
6.00394e-05
6.00621e-05
6.0093e-05
6.01194e-05
6.01306e-05
6.01281e-05
6.01257e-05
6.01389e-05
6.01763e-05
6.0237e-05
6.03099e-05
6.03703e-05
6.03826e-05
6.03403e-05
6.02727e-05
6.02474e-05
6.03482e-05
6.06101e-05
6.09917e-05
6.14095e-05
6.17909e-05
6.21111e-05
6.23901e-05
6.26644e-05
6.29748e-05
6.33478e-05
6.38104e-05
6.43695e-05
6.50818e-05
6.79553e-05
0.000104204
0.000231858
0.000341777
6.00052e-05
6.00028e-05
6.00034e-05
6.00029e-05
6.00028e-05
6.00026e-05
6.00026e-05
6.00024e-05
6.00025e-05
6.00025e-05
6.00026e-05
6.00027e-05
6.00029e-05
6.0003e-05
6.00033e-05
6.00039e-05
6.00047e-05
6.00055e-05
6.00064e-05
6.00081e-05
6.00118e-05
6.00179e-05
6.00249e-05
6.00295e-05
6.00308e-05
6.0033e-05
6.00441e-05
6.00689e-05
6.01015e-05
6.01278e-05
6.01363e-05
6.01297e-05
6.01229e-05
6.01325e-05
6.01672e-05
6.02263e-05
6.02987e-05
6.03566e-05
6.03761e-05
6.03395e-05
6.02682e-05
6.02433e-05
6.03493e-05
6.06179e-05
6.10081e-05
6.1437e-05
6.18295e-05
6.21521e-05
6.24205e-05
6.26802e-05
6.29816e-05
6.33675e-05
6.38508e-05
6.44745e-05
6.65263e-05
9.54646e-05
0.000219607
0.000347325
0.000389013
6.00054e-05
6.00029e-05
6.00035e-05
6.0003e-05
6.00029e-05
6.00027e-05
6.00026e-05
6.00026e-05
6.00025e-05
6.00026e-05
6.00027e-05
6.00028e-05
6.0003e-05
6.00031e-05
6.00034e-05
6.00038e-05
6.00046e-05
6.00055e-05
6.00065e-05
6.00076e-05
6.00097e-05
6.00142e-05
6.00214e-05
6.00293e-05
6.00342e-05
6.0035e-05
6.00369e-05
6.00486e-05
6.00748e-05
6.01086e-05
6.01341e-05
6.01397e-05
6.01287e-05
6.01175e-05
6.01229e-05
6.0154e-05
6.02111e-05
6.0282e-05
6.035e-05
6.03797e-05
6.03461e-05
6.02738e-05
6.02425e-05
6.0341e-05
6.06101e-05
6.10147e-05
6.14651e-05
6.18715e-05
6.21958e-05
6.24573e-05
6.2717e-05
6.30373e-05
6.34484e-05
6.39952e-05
6.55088e-05
8.81383e-05
0.000206625
0.000347294
0.000407556
0.000401713
6.00055e-05
6.0003e-05
6.00037e-05
6.00031e-05
6.0003e-05
6.00028e-05
6.00028e-05
6.00027e-05
6.00028e-05
6.00027e-05
6.00028e-05
6.00029e-05
6.0003e-05
6.00032e-05
6.00034e-05
6.00038e-05
6.00044e-05
6.00053e-05
6.00065e-05
6.00078e-05
6.00091e-05
6.00116e-05
6.00168e-05
6.00251e-05
6.0034e-05
6.00391e-05
6.00394e-05
6.00407e-05
6.00526e-05
6.00797e-05
6.0114e-05
6.01381e-05
6.01404e-05
6.01253e-05
6.01097e-05
6.01104e-05
6.01374e-05
6.0192e-05
6.02717e-05
6.03528e-05
6.03941e-05
6.03603e-05
6.02773e-05
6.02321e-05
6.03257e-05
6.06047e-05
6.10295e-05
6.15011e-05
6.19259e-05
6.22598e-05
6.25366e-05
6.28225e-05
6.31711e-05
6.36437e-05
6.47874e-05
8.22033e-05
0.000192761
0.000347844
0.00041614
0.000428324
0.000389894
6.00057e-05
6.00031e-05
6.00038e-05
6.00032e-05
6.00031e-05
6.00029e-05
6.00029e-05
6.00028e-05
6.00028e-05
6.00029e-05
6.00028e-05
6.00029e-05
6.00031e-05
6.00033e-05
6.00035e-05
6.00038e-05
6.00042e-05
6.00051e-05
6.00063e-05
6.00078e-05
6.00093e-05
6.00109e-05
6.00138e-05
6.00198e-05
6.00292e-05
6.00389e-05
6.00441e-05
6.00438e-05
6.00442e-05
6.00559e-05
6.00834e-05
6.01173e-05
6.01393e-05
6.01385e-05
6.01197e-05
6.00998e-05
6.00958e-05
6.01193e-05
6.01794e-05
6.02718e-05
6.03667e-05
6.04092e-05
6.03685e-05
6.02767e-05
6.02272e-05
6.03219e-05
6.06099e-05
6.10551e-05
6.1558e-05
6.20106e-05
6.23751e-05
6.26854e-05
6.30018e-05
6.34062e-05
6.42768e-05
7.75146e-05
0.000178589
0.000346744
0.000427116
0.000442186
0.000421028
0.000361605
6.00058e-05
6.00031e-05
6.00039e-05
6.00034e-05
6.00032e-05
6.0003e-05
6.0003e-05
6.00029e-05
6.00029e-05
6.0003e-05
6.00031e-05
6.0003e-05
6.00032e-05
6.00033e-05
6.00035e-05
6.00038e-05
6.00042e-05
6.00049e-05
6.00059e-05
6.00074e-05
6.00092e-05
6.0011e-05
6.00129e-05
6.00162e-05
6.0023e-05
6.00335e-05
6.0044e-05
6.00492e-05
6.0048e-05
6.00474e-05
6.00587e-05
6.0086e-05
6.01183e-05
6.01377e-05
6.01339e-05
6.0112e-05
6.00883e-05
6.00811e-05
6.01085e-05
6.01783e-05
6.02788e-05
6.03758e-05
6.04189e-05
6.03809e-05
6.02909e-05
6.02379e-05
6.03304e-05
6.06307e-05
6.11076e-05
6.16473e-05
6.2138e-05
6.2544e-05
6.289e-05
6.32564e-05
6.39234e-05
7.38225e-05
0.000164409
0.000344227
0.000437429
0.000459331
0.000438015
0.000394569
0.000324343
6.00059e-05
6.00032e-05
6.0004e-05
6.00035e-05
6.00033e-05
6.00032e-05
6.00031e-05
6.0003e-05
6.0003e-05
6.00031e-05
6.00031e-05
6.00033e-05
6.00032e-05
6.00034e-05
6.00036e-05
6.00038e-05
6.00042e-05
6.00048e-05
6.00056e-05
6.0007e-05
6.00088e-05
6.0011e-05
6.00131e-05
6.00152e-05
6.00189e-05
6.00265e-05
6.0038e-05
6.00491e-05
6.00541e-05
6.0052e-05
6.00503e-05
6.0061e-05
6.00868e-05
6.01166e-05
6.0133e-05
6.01266e-05
6.01022e-05
6.00765e-05
6.0075e-05
6.011e-05
6.01799e-05
6.02825e-05
6.03848e-05
6.04392e-05
6.04102e-05
6.03218e-05
6.02663e-05
6.03632e-05
6.06836e-05
6.11911e-05
6.17638e-05
6.23015e-05
6.27527e-05
6.31487e-05
6.36923e-05
7.09685e-05
0.000150412
0.000339879
0.000447726
0.000476136
0.000458725
0.000413104
0.000357328
0.000286652
6.00061e-05
6.00033e-05
6.00042e-05
6.00036e-05
6.00034e-05
6.00033e-05
6.00032e-05
6.00031e-05
6.00032e-05
6.00032e-05
6.00033e-05
6.00034e-05
6.00035e-05
6.00035e-05
6.00036e-05
6.00038e-05
6.00042e-05
6.00047e-05
6.00055e-05
6.00066e-05
6.00082e-05
6.00105e-05
6.0013e-05
6.00154e-05
6.00178e-05
6.00219e-05
6.00301e-05
6.00425e-05
6.00541e-05
6.00589e-05
6.00556e-05
6.00531e-05
6.00625e-05
6.00859e-05
6.0112e-05
6.01254e-05
6.01167e-05
6.00906e-05
6.00739e-05
6.00801e-05
6.01127e-05
6.01855e-05
6.02934e-05
6.04069e-05
6.04738e-05
6.0458e-05
6.03798e-05
6.03295e-05
6.04327e-05
6.07667e-05
6.12913e-05
6.1908e-05
6.24972e-05
6.30037e-05
6.35319e-05
6.884e-05
0.000136964
0.000333178
0.000457723
0.000493407
0.000479252
0.000435529
0.000376373
0.000318942
0.000260626
6.00062e-05
6.00034e-05
6.00043e-05
6.00037e-05
6.00035e-05
6.00034e-05
6.00033e-05
6.00033e-05
6.00033e-05
6.00033e-05
6.00034e-05
6.00035e-05
6.00036e-05
6.00037e-05
6.00037e-05
6.00038e-05
6.00042e-05
6.00047e-05
6.00054e-05
6.00064e-05
6.00078e-05
6.00098e-05
6.00125e-05
6.00154e-05
6.00181e-05
6.00207e-05
6.00251e-05
6.0034e-05
6.0047e-05
6.00588e-05
6.00629e-05
6.00588e-05
6.00553e-05
6.0063e-05
6.00829e-05
6.01052e-05
6.0115e-05
6.01032e-05
6.00875e-05
6.00795e-05
6.00885e-05
6.01269e-05
6.0204e-05
6.0317e-05
6.04411e-05
6.05297e-05
6.054e-05
6.04769e-05
6.04281e-05
6.05304e-05
6.08651e-05
6.14203e-05
6.20814e-05
6.27285e-05
6.33517e-05
6.72669e-05
0.000124443
0.000323837
0.00046707
0.000510895
0.000500461
0.000457907
0.000399326
0.000338068
0.000292639
0.000260223
6.00064e-05
6.00035e-05
6.00044e-05
6.00038e-05
6.00037e-05
6.00035e-05
6.00034e-05
6.00034e-05
6.00034e-05
6.00034e-05
6.00035e-05
6.00036e-05
6.00037e-05
6.00038e-05
6.0004e-05
6.00039e-05
6.00041e-05
6.00046e-05
6.00052e-05
6.00062e-05
6.00075e-05
6.00093e-05
6.00117e-05
6.00148e-05
6.00182e-05
6.00212e-05
6.0024e-05
6.00287e-05
6.00379e-05
6.00512e-05
6.00628e-05
6.00661e-05
6.00613e-05
6.00572e-05
6.00627e-05
6.00788e-05
6.00964e-05
6.01008e-05
6.00971e-05
6.00899e-05
6.00935e-05
6.01129e-05
6.01569e-05
6.02347e-05
6.03529e-05
6.04968e-05
6.0616e-05
6.06511e-05
6.05976e-05
6.0549e-05
6.065e-05
6.10001e-05
6.15779e-05
6.22877e-05
6.30439e-05
6.60666e-05
0.000113041
0.000311815
0.000475457
0.000528437
0.00052211
0.000481082
0.000422382
0.000361078
0.000311974
0.000292874
0.000284622
6.00067e-05
6.00036e-05
6.00045e-05
6.00039e-05
6.00038e-05
6.00036e-05
6.00035e-05
6.00035e-05
6.00035e-05
6.00035e-05
6.00036e-05
6.00037e-05
6.00039e-05
6.0004e-05
6.00041e-05
6.00042e-05
6.00042e-05
6.00046e-05
6.00051e-05
6.0006e-05
6.00073e-05
6.00089e-05
6.00111e-05
6.0014e-05
6.00175e-05
6.00213e-05
6.00247e-05
6.00276e-05
6.00324e-05
6.00419e-05
6.0055e-05
6.00659e-05
6.00683e-05
6.00633e-05
6.00589e-05
6.00623e-05
6.00742e-05
6.00852e-05
6.00938e-05
6.00963e-05
6.01051e-05
6.01218e-05
6.01508e-05
6.0199e-05
6.02777e-05
6.04044e-05
6.05668e-05
6.07108e-05
6.07691e-05
6.07331e-05
6.07029e-05
6.0815e-05
6.1164e-05
6.17702e-05
6.25721e-05
6.50153e-05
0.000103049
0.000297079
0.00048259
0.000545862
0.000544146
0.000504811
0.000446324
0.000384353
0.0003352
0.000312635
0.000318505
0.000321928
6.00071e-05
6.00037e-05
6.00047e-05
6.0004e-05
6.00039e-05
6.00037e-05
6.00036e-05
6.00036e-05
6.00036e-05
6.00037e-05
6.00038e-05
6.00039e-05
6.0004e-05
6.00041e-05
6.00042e-05
6.00043e-05
6.00045e-05
6.00046e-05
6.00051e-05
6.00059e-05
6.0007e-05
6.00087e-05
6.00107e-05
6.00133e-05
6.00166e-05
6.00206e-05
6.00249e-05
6.00285e-05
6.00315e-05
6.00365e-05
6.00459e-05
6.00584e-05
6.0068e-05
6.00695e-05
6.0065e-05
6.00606e-05
6.00622e-05
6.00693e-05
6.00823e-05
6.00939e-05
6.01082e-05
6.01283e-05
6.01585e-05
6.02005e-05
6.02504e-05
6.03257e-05
6.04511e-05
6.0627e-05
6.08005e-05
6.08964e-05
6.09089e-05
6.09022e-05
6.10063e-05
6.13676e-05
6.20338e-05
6.40063e-05
9.43521e-05
0.000280181
0.00048803
0.000563022
0.000566479
0.000529098
0.000470904
0.000408592
0.000358793
0.000336324
0.00033871
0.000356981
0.00036076
6.00075e-05
6.00039e-05
6.00048e-05
6.00041e-05
6.0004e-05
6.00039e-05
6.00038e-05
6.00037e-05
6.00037e-05
6.00038e-05
6.00039e-05
6.0004e-05
6.00041e-05
6.00043e-05
6.00044e-05
6.00045e-05
6.00046e-05
6.0005e-05
6.00051e-05
6.00058e-05
6.00068e-05
6.00083e-05
6.00104e-05
6.00129e-05
6.0016e-05
6.00197e-05
6.00242e-05
6.00288e-05
6.00326e-05
6.00359e-05
6.0041e-05
6.00499e-05
6.00612e-05
6.00689e-05
6.00699e-05
6.00661e-05
6.00623e-05
6.00636e-05
6.00741e-05
6.00885e-05
6.01024e-05
6.01228e-05
6.01559e-05
6.02044e-05
6.02542e-05
6.0297e-05
6.03592e-05
6.04833e-05
6.06796e-05
6.08961e-05
6.10572e-05
6.11151e-05