/*--------------------------------*- C++ -*----------------------------------*\
  =========                 |
  \\      /  F ield         | OpenFOAM: The Open Source CFD Toolbox
   \\    /   O peration     | Website:  https://openfoam.org
    \\  /    A nd           | Version:  dev
     \\/     M anipulation  |
\*---------------------------------------------------------------------------*/
FoamFile
{
    version     2.0;
    format      ascii;
    class       surfaceScalarField;
    location    "50";
    object      phi;
}
// * * * * * * * * * * * * * * * * * * * * * * * * * * * * * * * * * * * * * //

dimensions      [0 3 -1 0 0 0 0];

internalField   nonuniform List<scalar> 
58294
(
-0.473827
1.73166e-05
-0.473836
1.64592e-05
-0.429813
1.67444e-05
-0.473842
1.49404e-05
-0.429814
1.75668e-05
-0.390218
1.96923e-05
-0.473849
1.3859e-05
-0.429816
1.68699e-05
-0.390222
2.06553e-05
-0.354096
2.09914e-05
-0.473855
1.23503e-05
-0.429818
1.58838e-05
-0.390225
2.00913e-05
-0.354098
2.21376e-05
-0.32138
2.11214e-05
-0.473862
1.06076e-05
-0.42982
1.45172e-05
-0.390229
1.95583e-05
-0.3541
2.19815e-05
-0.321381
2.29918e-05
-0.291645
2.07544e-05
-0.473869
8.62562e-06
-0.429822
1.27559e-05
-0.390233
1.84646e-05
-0.354102
2.19376e-05
-0.321383
2.34843e-05
-0.291645
2.30818e-05
-0.264673
1.87372e-05
-0.473876
6.52962e-06
-0.429824
1.07526e-05
-0.390237
1.69926e-05
-0.354106
2.1427e-05
-0.321385
2.42087e-05
-0.291646
2.41322e-05
-0.264673
2.19552e-05
-0.240188
1.60188e-05
-0.473884
4.35027e-06
-0.429826
8.49215e-06
-0.390241
1.51146e-05
-0.354109
2.04595e-05
-0.321389
2.43897e-05
-0.291648
2.56183e-05
-0.264673
2.39305e-05
-0.240186
2.01564e-05
-0.21796
1.22729e-05
-0.473891
2.17054e-06
-0.429828
6.12041e-06
-0.390246
1.2927e-05
-0.354113
1.89923e-05
-0.321392
2.41157e-05
-0.29165
2.6767e-05
-0.264673
2.64299e-05
-0.240185
2.28137e-05
-0.217957
1.71755e-05
-0.197787
7.62618e-06
-0.473898
1.27782e-08
-0.42983
3.64168e-06
-0.39025
1.04674e-05
-0.354117
1.71099e-05
-0.321397
2.33041e-05
-0.291654
2.7386e-05
-0.264675
2.84461e-05
-0.240185
2.61841e-05
-0.217955
2.08409e-05
-0.197784
1.37195e-05
-0.179477
2.57348e-06
-0.473905
-2.07781e-06
-0.429831
1.174e-06
-0.390254
7.85058e-06
-0.354122
1.48393e-05
-0.321402
2.19121e-05
-0.291658
2.74188e-05
-0.264678
3.01376e-05
-0.240186
2.93804e-05
-0.217954
2.52261e-05
-0.197781
1.79709e-05
-0.179473
9.23242e-06
-0.162857
-3.42533e-06
-0.473911
-4.0933e-06
-0.429832
-1.27807e-06
-0.390258
5.12075e-06
-0.354126
1.22937e-05
-0.321407
2.00514e-05
-0.291663
2.68307e-05
-0.264682
3.11742e-05
-0.240188
3.20907e-05
-0.217954
2.92823e-05
-0.197779
2.31568e-05
-0.17947
1.44318e-05
-0.162852
4.55803e-06
-0.147772
-9.29543e-06
-0.473917
-6.01509e-06
-0.429832
-3.63052e-06
-0.390262
2.38258e-06
-0.35413
9.54076e-06
-0.321412
1.77348e-05
-0.291669
2.55849e-05
-0.264687
3.15313e-05
-0.240191
3.42948e-05
-0.217956
3.31919e-05
-0.197778
2.83397e-05
-0.179467
2.0455e-05
-0.162848
1.01493e-05
-0.147767
-9.62889e-07
-0.13408
-1.6073e-05
-0.473923
-7.84559e-06
-0.429832
-5.88414e-06
-0.390265
-3.27606e-07
-0.354135
6.68676e-06
-0.321418
1.51087e-05
-0.291675
2.37991e-05
-0.264692
3.11787e-05
-0.240196
3.57543e-05
-0.217958
3.64843e-05
-0.197778
3.31965e-05
-0.179465
2.63147e-05
-0.162844
1.67808e-05
-0.147762
5.43491e-06
-0.134075
-6.41492e-06
-0.121648
-2.21948e-05
-0.473928
-9.58078e-06
-0.429832
-7.98867e-06
-0.390268
-2.93216e-06
-0.354139
3.80394e-06
-0.321423
1.22261e-05
-0.291681
2.14914e-05
-0.264699
3.00925e-05
-0.240201
3.64409e-05
-0.217961
3.91758e-05
-0.197779
3.77244e-05
-0.179464
3.22476e-05
-0.162842
2.35359e-05
-0.147758
1.26436e-05
-0.13407
1.87468e-07
-0.121643
-1.24946e-05
-0.110364
-2.91552e-05
-0.473932
-1.12265e-05
-0.429832
-9.95034e-06
-0.390271
-5.41107e-06
-0.354143
9.73746e-07
-0.321429
9.22559e-06
-0.291688
1.88145e-05
-0.264706
2.83814e-05
-0.240207
3.63301e-05
-0.217966
4.10433e-05
-0.197782
4.15738e-05
-0.179464
3.77508e-05
-0.16284
3.01761e-05
-0.147755
1.98061e-05
-0.134065
7.78007e-06
-0.121637
-5.2242e-06
-0.110358
-1.82865e-05
-0.100121
-3.49963e-05
-0.473936
-1.27848e-05
-0.429831
-1.17441e-05
-0.390273
-7.71654e-06
-0.354146
-1.74931e-06
-0.321434
6.16709e-06
-0.291694
1.58321e-05
-0.264713
2.60777e-05
-0.240214
3.54089e-05
-0.217972
4.20606e-05
-0.197786
4.47192e-05
-0.179466
4.28482e-05
-0.162839
3.67382e-05
-0.147752
2.72503e-05
-0.134061
1.5543e-05
-0.121632
2.68027e-06
-0.110353
-1.09062e-05
-0.100115
-2.44782e-05
-0.0908206
-4.16184e-05
-0.473939
-1.42605e-05
-0.429831
-1.3381e-05
-0.390275
-9.84525e-06
-0.35415
-4.31541e-06
-0.321439
3.15926e-06
-0.291701
1.26868e-05
-0.26472
2.33289e-05
-0.240222
3.37584e-05
-0.217979
4.21844e-05
-0.197791
4.70012e-05
-0.179468
4.72355e-05
-0.162839
4.28485e-05
-0.147749
3.45175e-05
-0.134057
2.33821e-05
-0.121627
1.05874e-05
-0.110347
-2.85538e-06
-0.100109
-1.64833e-05
-0.0908149
-3.01762e-05
-0.082378
-4.67231e-05
-0.473941
-1.56555e-05
-0.42983
-1.48522e-05
-0.390276
-1.17749e-05
-0.354153
-6.6954e-06
-0.321443
2.47893e-07
-0.291707
9.45505e-06
-0.264728
2.02128e-05
-0.24023
3.14487e-05
-0.217986
4.14362e-05
-0.197797
4.83369e-05
-0.179472
5.08222e-05
-0.16284
4.84697e-05
-0.147748
4.1667e-05
-0.134054
3.14133e-05
-0.121623
1.89211e-05
-0.110342
5.37654e-06
-0.100104
-8.36109e-06
-0.0908094
-2.20253e-05
-0.0823725
-3.60283e-05
-0.0747067
-5.25315e-05
-0.473943
-1.69724e-05
-0.429829
-1.61702e-05
-0.390278
-1.35138e-05
-0.354156
-8.86794e-06
-0.321448
-2.49835e-06
-0.291713
6.24707e-06
-0.264735
1.68784e-05
-0.240238
2.85975e-05
-0.217995
3.98384e-05
-0.197804
4.8691e-05
-0.179477
5.35124e-05
-0.162842
5.33918e-05
-0.147748
4.83636e-05
-0.134051
3.92798e-05
-0.121619
2.73265e-05
-0.110337
1.38061e-05
-0.100098
-1.91062e-07
-0.0908038
-1.3981e-05
-0.0823673
-2.721e-05
-0.0747015
-4.11918e-05
-0.0677512
-5.64825e-05
-0.473943
-1.82091e-05
-0.429829
-1.73359e-05
-0.390279
-1.50565e-05
-0.354159
-1.08262e-05
-0.321451
-5.05559e-06
-0.291719
3.12328e-06
-0.264742
1.34122e-05
-0.240247
2.53229e-05
-0.218004
3.75107e-05
-0.197812
4.80953e-05
-0.179484
5.51776e-05
-0.162846
5.74243e-05
-0.147749
5.45005e-05
-0.13405
4.69681e-05
-0.121615
3.59195e-05
-0.110332
2.26728e-05
-0.100093
8.46115e-06
-0.0907982
-5.69668e-06
-0.0823619
-1.93006e-05
-0.0746967
-3.20445e-05
-0.0677464
-4.62398e-05
-0.0614308
-6.1044e-05
-0.473943
-1.93703e-05
-0.429829
-1.83592e-05
-0.39028
-1.64184e-05
-0.354161
-1.25689e-05
-0.321455
-7.39163e-06
-0.291724
1.55593e-07
-0.264749
9.93621e-06
-0.240255
2.17557e-05
-0.218013
3.45383e-05
-0.197822
4.65452e-05
-0.179492
5.57819e-05
-0.162852
6.05173e-05
-0.147752
5.99495e-05
-0.13405
5.42503e-05
-0.121613
4.43626e-05
-0.110328
3.16482e-05
-0.100087
1.74011e-05
-0.0907926
2.81581e-06
-0.0823564
-1.11977e-05
-0.0746916
-2.44042e-05
-0.0677421
-3.63061e-05
-0.0614265
-5.04016e-05
-0.0557003
-6.35231e-05
-0.473942
-2.04484e-05
-0.429829
-1.92509e-05
-0.390281
-1.76015e-05
-0.354164
-1.41039e-05
-0.321458
-9.50254e-06
-0.291728
-2.62284e-06
-0.264756
6.52195e-06
-0.240263
1.8015e-05
-0.218022
3.10715e-05
-0.197831
4.41878e-05
-0.1795
5.53366e-05
-0.162859
6.25138e-05
-0.147756
6.44587e-05
-0.134051
6.0909e-05
-0.121611
5.25787e-05
-0.110325
4.07589e-05
-0.100083
2.68004e-05
-0.0907871
1.19664e-05
-0.0823508
-2.66504e-06
-0.0746864
-1.63024e-05
-0.0677375
-2.89554e-05
-0.0614229
-3.99543e-05
-0.0556968
-5.41941e-05
-0.0505005
-6.65072e-05
-0.47394
-2.14448e-05
-0.429829
-2.00156e-05
-0.390281
-1.86276e-05
-0.354166
-1.54389e-05
-0.321461
-1.13821e-05
-0.291733
-5.17609e-06
-0.264761
3.25077e-06
-0.240271
1.42199e-05
-0.218031
2.72326e-05
-0.197841
4.10817e-05
-0.17951
5.3854e-05
-0.162867
6.33756e-05
-0.147761
6.79773e-05
-0.134053
6.68765e-05
-0.121611
6.0444e-05
-0.110322
4.97818e-05
-0.100078
3.63115e-05
-0.0907818
2.14457e-05
-0.0823453
6.32612e-06
-0.074681
-8.06362e-06
-0.0677327
-2.10688e-05
-0.0614188
-3.30173e-05
-0.0556938
-4.28827e-05
-0.0504976
-5.69609e-05
-0.0457803
-6.72979e-05
-0.473937
-2.23588e-05
-0.42983
-2.06633e-05
-0.390282
-1.94994e-05
-0.354168
-1.65931e-05
-0.321463
-1.30379e-05
-0.291737
-7.49551e-06
-0.264767
1.65992e-07
-0.240278
1.04634e-05
-0.21804
2.31698e-05
-0.197851
3.74098e-05
-0.17952
5.1453e-05
-0.162876
6.31008e-05
-0.147768
7.0319e-05
-0.134057
7.18663e-05
-0.121612
6.76648e-05
-0.11032
5.85421e-05
-0.100074
4.59105e-05
-0.0907768
3.13182e-05
-0.0823398
1.59892e-05
-0.0746756
9.54461e-07
-0.0677278
-1.29353e-05
-0.0614146
-2.51714e-05
-0.0556904
-3.63495e-05
-0.0504954
-4.5032e-05
-0.0457783
-5.91759e-05
-0.0415017
-6.85622e-05
-0.473934
-2.31838e-05
-0.429831
-2.12059e-05
-0.390282
-2.02358e-05
-0.35417
-1.75748e-05
-0.321465
-1.44817e-05
-0.29174
-9.57011e-06
-0.264772
-2.68944e-06
-0.240285
6.83148e-06
-0.218049
1.90024e-05
-0.197861
3.32841e-05
-0.179531
4.82171e-05
-0.162886
6.16926e-05
-0.147777
7.14668e-05
-0.134063
7.58219e-05
-0.121614
7.41788e-05
-0.110319
6.69798e-05
-0.100071
5.55158e-05
-0.0907722
4.13624e-05
-0.0823344
2.59579e-05
-0.0746701
1.0466e-05
-0.0677227
-4.2161e-06
-0.0614102
-1.73933e-05
-0.0556869
-2.86907e-05
-0.0504927
-3.90122e-05
-0.0457769
-4.64183e-05
-0.0415004
-6.03192e-05
-0.0376225
-6.77175e-05
-0.47393
-2.39208e-05
-0.429833
-2.16451e-05
-0.390282
-2.0848e-05
-0.354172
-1.84026e-05
-0.321467
-1.57247e-05
-0.291743
-1.14104e-05
-0.264776
-5.29861e-06
-0.240291
3.38289e-06
-0.218057
1.48482e-05
-0.197871
2.88785e-05
-0.179542
4.43209e-05
-0.162897
5.92721e-05
-0.147786
7.13757e-05
-0.13407
7.85561e-05
-0.121618
7.96809e-05
-0.11032
7.47756e-05
-0.100069
6.48605e-05
-0.0907683
5.14788e-05
-0.0823293
3.62378e-05
-0.0746647
2.05517e-05
-0.0677175
5.31536e-06
-0.0614056
-8.75067e-06
-0.0556831
-2.10681e-05
-0.05049
-3.13882e-05
-0.045775
-4.08726e-05
-0.0414998
-4.69851e-05
-0.037622
-6.08638e-05
-0.0341055
-6.73871e-05
-0.473925
-2.45679e-05
-0.429835
-2.19929e-05
-0.390283
-2.13451e-05
-0.354173
-1.90923e-05
-0.321469
-1.67829e-05
-0.291746
-1.30185e-05
-0.26478
-7.64949e-06
-0.240296
1.66239e-07
-0.218064
1.07989e-05
-0.197881
2.43135e-05
-0.179553
3.98963e-05
-0.162909
5.59211e-05
-0.147797
7.00717e-05
-0.134078
8.00071e-05
-0.121623
8.41053e-05
-0.110322
8.18461e-05
-0.100068
7.3898e-05
-0.090765
6.1658e-05
-0.0823246
4.68276e-05
-0.0746594
3.09622e-05
-0.0677122
1.52677e-05
-0.0614009
4.75527e-07
-0.0556791
-1.27877e-05
-0.0504869
-2.41252e-05
-0.045773
-3.33953e-05
-0.0414987
-4.20081e-05
-0.0376222
-4.68565e-05
-0.0341058
-6.04326e-05
-0.0309184
-6.51479e-05
-0.47392
-2.5123e-05
-0.429837
-2.22548e-05
-0.390283
-2.17386e-05
-0.354175
-1.96537e-05
-0.32147
-1.7675e-05
-0.291748
-1.4412e-05
-0.264783
-9.74276e-06
-0.240301
-2.79205e-06
-0.218071
6.93089e-06
-0.19789
1.97317e-05
-0.179564
3.51219e-05
-0.162921
5.18169e-05
-0.147809
6.76419e-05
-0.134088
8.01496e-05
-0.121631
8.72634e-05
-0.110326
8.79133e-05
-0.100069
8.23013e-05
-0.0907628
7.16093e-05
-0.0823205
5.75003e-05
-0.0746543
4.17049e-05
-0.067707
2.56326e-05
-0.061396
1.03882e-05
-0.055675
-3.64062e-06
-0.0504837
-1.59777e-05
-0.0457707
-2.63078e-05
-0.0414974
-3.45651e-05
-0.0376217
-4.23952e-05
-0.0341066
-4.60053e-05
-0.0309195
-5.94865e-05
-0.0280314
-6.35526e-05
-0.473914
-2.55898e-05
-0.42984
-2.24371e-05
-0.390283
-2.20393e-05
-0.354177
-2.01019e-05
-0.321471
-1.84118e-05
-0.29175
-1.56053e-05
-0.264786
-1.15841e-05
-0.240306
-5.47323e-06
-0.218077
3.30037e-06
-0.197898
1.52279e-05
-0.179574
3.01401e-05
-0.162933
4.70992e-05
-0.147821
6.41997e-05
-0.1341
7.89931e-05
-0.12164
8.9062e-05
-0.110331
9.28174e-05
-0.100071
8.9962e-05
-0.0907617
8.12631e-05
-0.0823172
6.82816e-05
-0.0746496
5.28163e-05
-0.0677017
3.65284e-05
-0.0613909
2.0636e-05
-0.0556706
6.00321e-06
-0.0504802
-7.21091e-06
-0.0457682
-1.85244e-05
-0.0414959
-2.78107e-05
-0.0376212
-3.50693e-05
-0.0341069
-4.21257e-05
-0.0309209
-4.46242e-05
-0.028033
-5.77577e-05
-0.0254158
-6.03612e-05
-0.473907
-2.59573e-05
-0.429843
-2.25487e-05
-0.390283
-2.22536e-05
-0.354178
-2.04483e-05
-0.321472
-1.90113e-05
-0.291752
-1.66126e-05
-0.264788
-1.31883e-05
-0.240309
-7.87503e-06
-0.218083
-5.55024e-08
-0.197906
1.09036e-05
-0.179584
2.50988e-05
-0.162945
4.19613e-05
-0.147834
5.98962e-05
-0.134112
7.66013e-05
-0.12165
8.94643e-05
-0.110339
9.64463e-05
-0.100075
9.66216e-05
-0.0907621
9.03176e-05
-0.0823148
7.88731e-05
-0.0746455
6.40823e-05
-0.0676967
4.77459e-05
-0.0613859
3.14017e-05
-0.055666
1.59908e-05
-0.0504765
2.32047e-06
-0.0457654
-9.88463e-06
-0.0414942
-2.01867e-05
-0.0376204
-2.84932e-05
-0.034107
-3.48476e-05
-0.0309217
-4.12644e-05
-0.028035
-4.27019e-05
-0.0254179
-5.56883e-05
-0.0230469
-5.79534e-05
-0.473901
-2.6235e-05
-0.429846
-2.25847e-05
-0.390284
-2.23933e-05
-0.35418
-2.07018e-05
-0.321473
-1.94864e-05
-0.291754
-1.74511e-05
-0.26479
-1.45659e-05
-0.240312
-1.00004e-05
-0.218087
-3.11436e-06
-0.197912
6.81544e-06
-0.179594
2.01216e-05
-0.162956
3.65507e-05
-0.147847
5.4907e-05
-0.134125
7.31052e-05
-0.121662
8.84902e-05
-0.110348
9.86379e-05
-0.10008
0.000102063
-0.0907641
9.8571e-05
-0.0823137
8.91726e-05
-0.074642
7.54909e-05
-0.067692
5.94221e-05
-0.0613808
4.27069e-05
-0.0556613
2.66849e-05
-0.0504725
1.20181e-05
-0.0457625
-6.81307e-07
-0.0414922
-1.19645e-05
-0.0376194
-2.12204e-05
-0.0341069
-2.85754e-05
-0.0309225
-3.40973e-05
-0.0280363
-3.98993e-05
-0.0254202
-4.04537e-05
-0.0230494
-5.30739e-05
-0.0209001
-5.4252e-05
-0.473894
-2.64217e-05
-0.42985
-2.25577e-05
-0.390284
-2.24544e-05
-0.354181
-2.08749e-05
-0.321474
-1.98494e-05
-0.291755
-1.81374e-05
-0.264792
-1.57364e-05
-0.240315
-1.18588e-05
-0.218091
-5.86684e-06
-0.197919
3.01829e-06
-0.179602
1.5308e-05
-0.162967
3.10482e-05
-0.14786
4.94075e-05
-0.134139
6.86433e-05
-0.121675
8.61718e-05
-0.110359
9.93653e-05
-0.100088
0.000106185
-0.0907678
0.000105852
-0.082314
9.88956e-05
-0.0746396
8.67541e-05
-0.0676879
7.13199e-05
-0.0613759
5.44614e-05
-0.0556564
3.77723e-05
-0.0504682
2.24011e-05
-0.0457591
8.60212e-06
-0.04149
-2.88902e-06
-0.0376181
-1.31695e-05
-0.0341066
-2.14981e-05
-0.0309229
-2.80176e-05
-0.0280375
-3.28174e-05
-0.0254219
-3.81581e-05
-0.0230521
-3.78828e-05
-0.0209029
-5.03192e-05
-0.0189562
-5.14736e-05
-0.473886
-2.65193e-05
-0.429854
-2.24698e-05
-0.390284
-2.24512e-05
-0.354183
-2.09652e-05
-0.321475
-2.01142e-05
-0.291756
-1.86845e-05
-0.264793
-1.67158e-05
-0.240317
-1.34644e-05
-0.218095
-8.31319e-06
-0.197924
-4.61291e-07
-0.17961
1.0737e-05
-0.162977
2.55707e-05
-0.147872
4.35939e-05
-0.134153
6.3401e-05
-0.121689
8.26645e-05
-0.110371
9.8618e-05
-0.100097
0.000108814
-0.0907736
0.000111871
-0.082316
0.000107795
-0.0746385
9.769e-05
-0.0676845
8.33756e-05
-0.0613712
6.67472e-05
-0.0556515
4.95791e-05
-0.0504637
3.32961e-05
-0.0457555
1.87873e-05
-0.0414873
5.98446e-06
-0.0376167
-4.41967e-06
-0.0341059
-1.38742e-05
-0.0309232
-2.12688e-05
-0.0280385
-2.70116e-05
-0.0254236
-3.11982e-05
-0.023054
-3.60933e-05
-0.0209057
-3.51854e-05
-0.0189592
-4.7247e-05
-0.0171946
-4.76896e-05
-0.473879
-2.65349e-05
-0.429858
-2.23245e-05
-0.390284
-2.23856e-05
-0.354184
-2.09873e-05
-0.321476
-2.02818e-05
-0.291757
-1.91098e-05
-0.264794
-1.7521e-05
-0.240319
-1.4835e-05
-0.218098
-1.04621e-05
-0.197929
-3.60577e-06
-0.179617
6.4703e-06
-0.162987
2.02485e-05
-0.147884
3.76223e-05
-0.134167
5.75787e-05
-0.121704
7.80732e-05
-0.110385
9.64426e-05
-0.100109
0.0001099
-0.0907813
0.000116536
-0.0823198
0.000115709
-0.0746387
0.000108104
-0.0676821
9.53172e-05
-0.0613672
7.92938e-05
-0.0556467
6.19362e-05
-0.050459
4.4843e-05
-0.0457514
2.92279e-05
-0.0414843
1.57831e-05
-0.0376146
3.92177e-06
-0.0341051
-5.23635e-06
-0.0309231
-1.3852e-05
-0.0280392
-2.04937e-05
-0.0254249
-2.55971e-05
-0.023056
-2.92661e-05
-0.0209079
-3.3867e-05
-0.0189621
-3.23609e-05
-0.0171977
-4.42139e-05
-0.0155989
-4.49172e-05
-0.473871
-2.64572e-05
-0.429862
-2.213e-05
-0.390284
-2.22627e-05
-0.354186
-2.09445e-05
-0.321476
-2.03678e-05
-0.291758
-1.94161e-05
-0.264795
-1.81706e-05
-0.240321
-1.5987e-05
-0.218101
-1.23276e-05
-0.197933
-6.41355e-06
-0.179623
2.54153e-06
-0.162995
1.51695e-05
-0.147896
3.16524e-05
-0.134181
5.13589e-05
-0.121719
7.26399e-05
-0.1104
9.2955e-05
-0.100122
0.000109434
-0.0907911
0.00011964
-0.0823256
0.000122341
-0.0746407
0.000117672
-0.0676809
0.000106923
-0.0613639
9.19668e-05
-0.0556422
7.4829e-05
-0.0504543
5.72189e-05
-0.0457471
4.05554e-05
-0.0414808
2.58197e-05
-0.0376123
1.34893e-05
-0.0341037
2.61e-06
-0.0309229
-5.51916e-06
-0.0280396
-1.35098e-05
-0.025426
-1.93928e-05
-0.0230575
-2.39119e-05
-0.02091
-2.71815e-05
-0.0189644
-3.14782e-05
-0.0172007
-2.95572e-05
-0.015602
-4.10452e-05
-0.0141526
-4.13406e-05
-0.473863
-2.62966e-05
-0.429867
-2.1877e-05
-0.390284
-2.20899e-05
-0.354187
-2.08419e-05
-0.321477
-2.03779e-05
-0.291759
-1.96218e-05
-0.264796
-1.86715e-05
-0.240322
-1.69421e-05
-0.218103
-1.3926e-05
-0.197936
-8.88952e-06
-0.179628
-1.02449e-06
-0.163003
1.04033e-05
-0.147907
2.58188e-05
-0.134194
4.49319e-05
-0.121734
6.65119e-05
-0.110416
8.83163e-05
-0.100136
0.000107429
-0.0908028
0.000121147
-0.0823336
0.000127568
-0.0746446
0.000126246
-0.0676812
0.000118016
-0.0613615
0.000104595
-0.0556382
8.80081e-05
-0.0504496
7.01689e-05
-0.0457426
5.26604e-05
-0.041477
3.66458e-05
-0.0376094
2.29035e-05
-0.034102
1.17965e-05
-0.030922
1.70176e-06
-0.0280398
-5.27428e-06
-0.0254267
-1.26663e-05
-0.0230589
-1.79859e-05
-0.0209118
-2.20498e-05
-0.0189666
-2.49753e-05
-0.017203
-2.91034e-05
-0.0156049
-2.67878e-05
-0.0141557
-3.80581e-05
-0.0128415
-3.88308e-05
-0.473855
-2.60725e-05
-0.429872
-2.15752e-05
-0.390284
-2.18593e-05
-0.354188
-2.06878e-05
-0.321477
-2.03186e-05
-0.291759
-1.9734e-05
-0.264797
-1.9044e-05
-0.240323
-1.77096e-05
-0.218104
-1.5279e-05
-0.197939
-1.10471e-05
-0.179633
-4.22231e-06
-0.16301
5.99676e-06
-0.147916
2.02189e-05
-0.134207
3.84738e-05
-0.121749
5.99298e-05
-0.110432
8.27024e-05
-0.100152
0.000104048
-0.0908164
0.00012099
-0.0823437
0.00013119
-0.0746506
0.000133499
-0.0676833
0.000128263
-0.0613604
0.000116879
-0.055635
0.000101319
-0.0504453
8.36085e-05
-0.045738
6.55859e-05
-0.0414728
4.85001e-05
-0.0376061
3.33339e-05
-0.0340997
2.06561e-05
-0.0309208
1.06796e-05
-0.0280394
1.38143e-06
-0.0254273
-4.69623e-06
-0.0230599
-1.16803e-05
-0.0209133
-1.64167e-05
-0.0189685
-2.00589e-05
-0.0172053
-2.2761e-05
-0.0156072
-2.66864e-05
-0.0141585
-2.41371e-05
-0.0128444
-3.50619e-05
-0.0116529
-3.56673e-05
-0.473848
-2.57528e-05
-0.429877
-2.12409e-05
-0.390284
-2.158e-05
-0.35419
-2.04749e-05
-0.321478
-2.01998e-05
-0.29176
-1.97621e-05
-0.264797
-1.92987e-05
-0.240324
-1.83132e-05
-0.218106
-1.63989e-05
-0.197941
-1.2905e-05
-0.179637
-7.05379e-06
-0.163016
1.98025e-06
-0.147925
1.49397e-05
-0.134219
3.21177e-05
-0.121764
5.30799e-05
-0.110448
7.63218e-05
-0.100169
9.93796e-05
-0.0908316
0.00011925
-0.0823558
0.000133122
-0.0746588
0.000139319
-0.0676873
0.000137488
-0.0613607
0.000128652
-0.0556327
0.000114603
-0.0504414
9.74251e-05
-0.0457335
7.90838e-05
-0.0414684
6.11369e-05
-0.0376023
4.46654e-05
-0.0340968
3.04365e-05
-0.030919
1.88134e-05
-0.0280387
1.00389e-05
-0.0254272
1.26142e-06
-0.0230608
-3.79574e-06
-0.0209144
-1.0406e-05
-0.0189701
-1.47446e-05
-0.0172072
-1.80759e-05
-0.0156095
-2.05665e-05
-0.0141607
-2.44098e-05
-0.0128471
-2.16307e-05
-0.0116557
-3.23436e-05
-0.0105754
-3.35706e-05
-0.47384
-2.53867e-05
-0.429881
-2.08467e-05
-0.390284
-2.12683e-05
-0.354191
-2.02128e-05
-0.321478
-2.00157e-05
-0.29176
-1.97171e-05
-0.264797
-1.9447e-05
-0.240324
-1.87661e-05
-0.218107
-1.7311e-05
-0.197943
-1.44777e-05
-0.17964
-9.53302e-06
-0.163022
-1.63578e-06
-0.147933
1.00363e-05
-0.13423
2.59922e-05
-0.121778
4.61447e-05
-0.110465
6.94093e-05
-0.100186
9.36552e-05
-0.0908482
0.000115987
-0.0823699
0.000133363
-0.0746691
0.000143466
-0.0676934
0.000145382
-0.0613628
0.000139553
-0.0556316
0.000127543
-0.0504381
0.000111366
-0.0457292
9.3089e-05
-0.0414638
7.44929e-05
-0.0375982
5.70118e-05
-0.0340935
4.13415e-05
-0.0309167
2.81023e-05
-0.0280373
1.75029e-05
-0.0254269
9.76633e-06
-0.0230609
1.54966e-06
-0.0209155
-2.75629e-06
-0.0189714
-9.13049e-06
-0.0172088
-1.30312e-05
-0.0156113
-1.60573e-05
-0.0141629
-1.8457e-05
-0.0128493
-2.21642e-05
-0.0116583
-1.92834e-05
-0.010578
-2.96855e-05
-0.00959795
-3.08835e-05
-0.473832
-2.4936e-05
-0.429886
-2.04332e-05
-0.390284
-2.08974e-05
-0.354193
-1.99171e-05
-0.321479
-1.97769e-05
-0.291761
-1.95954e-05
-0.264798
-1.95029e-05
-0.240325
-1.90836e-05
-0.218107
-1.80322e-05
-0.197945
-1.57906e-05
-0.179643
-1.16716e-05
-0.163026
-4.85099e-06
-0.14794
5.5458e-06
-0.13424
2.01878e-05
-0.121791
3.92835e-05
-0.110481
6.21502e-05
-0.100204
8.70767e-05
-0.090866
0.00011136
-0.0823858
0.000131883
-0.0746817
0.0001459
-0.0677017
0.000151768
-0.0613669
0.000149426
-0.055632
0.000139951
-0.0504358
0.000125271
-0.0457252
0.000107491
-0.0414593
8.85517e-05
-0.0375937
7.00705e-05
-0.0340897
5.31625e-05
-0.0309137
3.8321e-05
-0.0280353
2.60737e-05
-0.0254259
1.64389e-05
-0.0230609
9.81166e-06
-0.0209159
1.848e-06
-0.0189725
-1.57322e-06
-0.0172101
-7.74995e-06
-0.015613
-1.13671e-05
-0.0141647
-1.41792e-05
-0.0128513
-1.64566e-05
-0.0116603
-2.01319e-05
-0.0105804
-1.71548e-05
-0.00960042
-2.73649e-05
-0.00871086
-2.92387e-05
-0.473824
-2.44258e-05
-0.429891
-1.99679e-05
-0.390284
-2.05071e-05
-0.354194
-1.95631e-05
-0.321479
-1.94998e-05
-0.291761
-1.94089e-05
-0.264798
-1.9465e-05
-0.240325
-1.92824e-05
-0.218108
-1.85808e-05
-0.197946
-1.68641e-05
-0.179645
-1.34942e-05
-0.16303
-7.67368e-06
-0.147947
1.48593e-06
-0.134249
1.47727e-05
-0.121803
3.26359e-05
-0.110496
5.47603e-05
-0.100221
7.9864e-05
-0.0908844
0.000105578
-0.0824033
0.000128808
-0.0746963
0.000146522
-0.0677123
0.000156506
-0.061373
0.00015793
-0.055634
0.000151492
-0.0504347
0.000138805
-0.045722
0.000121999
-0.0414549
0.000103112
-0.0375891
8.39095e-05
-0.0340854
6.57775e-05
-0.0309102
4.97007e-05
-0.0280328
3.57717e-05
-0.0254243
2.44847e-05
-0.0230601
1.57371e-05
-0.020916
1.00144e-05
-0.018973
2.39461e-06
-0.0172113
-3.8965e-07
-0.0156142
-6.43888e-06
-0.0141663
-9.72573e-06
-0.0128531
-1.23076e-05
-0.0116622
-1.45894e-05
-0.0105823
-1.81698e-05
-0.0096026
-1.51899e-05
-0.00871311
-2.51257e-05
-0.00790685
-2.70424e-05
-0.473817
-2.38674e-05
-0.429896
-1.94711e-05
-0.390284
-2.00653e-05
-0.354195
-1.91889e-05
-0.321479
-1.91612e-05
-0.291761
-1.91751e-05
-0.264798
-1.93473e-05
-0.240325
-1.93644e-05
-0.218108
-1.8977e-05
-0.197947
-1.77195e-05
-0.179647
-1.50217e-05
-0.163034
-1.01213e-05
-0.147952
-2.13876e-06
-0.134257
9.7923e-06
-0.121815
2.63017e-05
-0.110511
4.7407e-05
-0.100239
7.22411e-05
-0.0909034
9.88264e-05
-0.082422
0.00012428
-0.0747129
0.00014537
-0.0677252
0.000159408
-0.0613815
0.00016493
-0.0556381
0.000161947
-0.050435
0.000151809
-0.0457196
0.000136444
-0.0414509
0.00011803
-0.0375844
9.84735e-05
-0.0340808
7.93269e-05
-0.0309062
6.17705e-05
-0.0280296
4.64897e-05
-0.025422
3.33968e-05
-0.0230588
2.30482e-05
-0.0209154
1.51255e-05
-0.0189733
1.04058e-05
-0.0172117
2.83034e-06
-0.0156154
8.17182e-07
-0.0141674
-5.14681e-06
-0.0128545
-8.23106e-06
-0.0116638
-1.06623e-05
-0.010584
-1.28824e-05
-0.00960433
-1.64597e-05
-0.00871511
-1.34818e-05
-0.0079089
-2.32511e-05
-0.00717625
-2.58226e-05
-0.473809
-2.32485e-05
-0.429901
-1.89505e-05
-0.390284
-1.95921e-05
-0.354197
-1.87645e-05
-0.32148
-1.87991e-05
-0.291762
-1.88725e-05
-0.264798
-1.91691e-05
-0.240325
-1.93458e-05
-0.218108
-1.92261e-05
-0.197947
-1.83808e-05
-0.179649
-1.62783e-05
-0.163037
-1.22149e-05
-0.147957
-5.3352e-06
-0.134265
5.26804e-06
-0.121825
2.03668e-05
-0.110525
4.02409e-05
-0.100256
6.4426e-05
-0.0909225
9.13609e-05
-0.0824416
0.000118467
-0.0747312
0.000142531
-0.0677403
0.00016046
-0.0613923
0.000170194
-0.0556442
0.000171098
-0.050437
0.000163924
-0.0457183
0.000150522
-0.0414475
0.000133017
-0.0375799
0.000113487
-0.034076
9.36418e-05
-0.0309017
7.4797e-05
-0.0280258
5.79187e-05
-0.0254191
4.36163e-05
-0.0230567
3.14e-05
-0.0209142
2.19143e-05
-0.0189728
1.47237e-05
-0.0172121
1.07947e-05
-0.0156158
3.41288e-06
-0.0141686
1.94235e-06
-0.0128556
-3.94752e-06
-0.0116652
-6.78212e-06
-0.0105855
-9.02951e-06
-0.00960594
-1.13222e-05
-0.00871668
-1.48281e-05
-0.0079107
-1.19155e-05
-0.00717809
-2.14472e-05
-0.00651395
-2.40307e-05
-0.473802
-2.25872e-05
-0.429906
-1.83956e-05
-0.390284
-1.90948e-05
-0.354198
-1.83092e-05
-0.32148
-1.8385e-05
-0.291762
-1.85396e-05
-0.264798
-1.89107e-05
-0.240325
-1.92491e-05
-0.218108
-1.93477e-05
-0.197948
-1.88573e-05
-0.17965
-1.72906e-05
-0.163039
-1.39785e-05
-0.147961
-8.11831e-06
-0.134271
1.21217e-06
-0.121835
1.48742e-05
-0.110538
3.33831e-05
-0.100272
5.65977e-05
-0.0909415
8.34067e-05
-0.0824619
0.000111602
-0.0747508
0.000138118
-0.0677575
0.000159672
-0.0614055
0.000173603
-0.0556527
0.000178638
-0.0504409
0.000174977
-0.0457184
0.000164024
-0.0414449
0.000147936
-0.0375757
0.000128816
-0.0340711
0.000108594
-0.0308968
8.87758e-05
-0.0280214
7.04304e-05
-0.0254155
5.43527e-05
-0.023054
4.08985e-05
-0.0209124
2.94317e-05
-0.0189717
2.08064e-05
-0.0172117
1.43116e-05
-0.0156162
1.1289e-05
-0.014169
3.82261e-06
-0.0128567
3.01422e-06
-0.0116661
-2.85322e-06
-0.0105867
-5.5336e-06
-0.00960728
-7.67006e-06
-0.00871814
-9.94007e-06
-0.00791212
-1.34525e-05
-0.00717971
-1.06215e-05
-0.00651558
-2.00115e-05
-0.00591266
-2.31609e-05
-0.473795
-2.18914e-05
-0.429911
-1.78199e-05
-0.390283
-1.85632e-05
-0.354199
-1.78306e-05
-0.321481
-1.79385e-05
-0.291762
-1.81493e-05
-0.264798
-1.86121e-05
-0.240325
-1.90561e-05
-0.218108
-1.93669e-05
-0.197948
-1.9172e-05
-0.17965
-1.80722e-05
-0.163041
-1.5441e-05
-0.147965
-1.05102e-05
-0.134277
-2.37998e-06
-0.121844
9.8664e-06
-0.11055
2.69125e-05
-0.100288
4.89319e-05
-0.0909601
7.51892e-05
-0.0824824
0.000103927
-0.0747715
0.000132327
-0.0677764
0.000157071
-0.0614209
0.000175106
-0.0556636
0.000184444
-0.0504469
0.000184665
-0.0457202
0.00017672
-0.0414433
0.000162466
-0.037572
0.000144196
-0.0340662
0.000123948
-0.0308916
0.000103418
-0.0280165
8.38787e-05
-0.0254112
6.61511e-05
-0.0230506
5.08908e-05
-0.0209099
3.84414e-05
-0.01897
2.77644e-05
-0.0172107
1.99058e-05
-0.0156158
1.40119e-05
-0.0141694
1.16759e-05
-0.012857
4.30872e-06
-0.0116672
3.97495e-06
-0.0105876
-1.83039e-06
-0.00960838
-4.32391e-06
-0.00871934
-6.30705e-06
-0.00791342
-8.69904e-06
-0.00718097
-1.21511e-05
-0.00651704
-9.43187e-06
-0.00591409
-1.86105e-05
-0.00536688
-2.17131e-05
-0.473788
-2.1143e-05
-0.429915
-1.72285e-05
-0.390283
-1.80103e-05
-0.3542
-1.73192e-05
-0.321481
-1.74675e-05
-0.291762
-1.77217e-05
-0.264798
-1.82476e-05
-0.240325
-1.88096e-05
-0.218108
-1.92687e-05
-0.197948
-1.93534e-05
-0.179651
-1.86492e-05
-0.163042
-1.66195e-05
-0.147968
-1.25381e-05
-0.134282
-5.52302e-06
-0.121851
5.35456e-06
-0.110561
2.09038e-05
-0.100302
4.15357e-05
-0.0909781
6.6917e-05
-0.0825029
9.5676e-05
-0.074793
0.000125388
-0.0677969
0.000152821
-0.0614385
0.000174659
-0.0556768
0.000188362
-0.0504552
0.000192756
-0.0457238
0.000188263
-0.0414431
0.000176455
-0.037569
0.000159467
-0.0340616
0.000139579
-0.0308863
0.000118645
-0.0280112
9.81196e-05
-0.0254064
7.90598e-05
-0.0230465
6.20617e-05
-0.0209067
4.76747e-05
-0.0189677
3.60461e-05
-0.0172091
2.60149e-05
-0.0156149
1.89511e-05
-0.014169
1.36511e-05
-0.0128574
1.21293e-05
-0.0116674
4.61975e-06
-0.0105885
4.84336e-06
-0.00960914
-9.66426e-07
-0.00872031
-3.34561e-06
-0.00791449
-5.24666e-06
-0.00718213
-7.63936e-06
-0.00651815
-1.10968e-05
-0.00591539
-8.5193e-06
-0.00536813
-1.75672e-05
-0.00487142
-2.11018e-05
-0.473782
-2.03849e-05
-0.42992
-1.66065e-05
-0.390283
-1.74414e-05
-0.354202
-1.67877e-05
-0.321481
-1.69631e-05
-0.291763
-1.72656e-05
-0.264797
-1.78385e-05
-0.240324
-1.84849e-05
-0.218108
-1.90983e-05
-0.197948
-1.93901e-05
-0.179651
-1.90543e-05
-0.163043
-1.75432e-05
-0.14797
-1.42228e-05
-0.134286
-8.23965e-06
-0.121858
1.33903e-06
-0.110571
1.53963e-05
-0.100316
3.45339e-05
-0.0909953
5.87407e-05
-0.0825231
8.7101e-05
-0.0748148
0.000117531
-0.0678186
0.000147089
-0.061458
0.000172335
-0.0556925
0.000190278
-0.050466
0.00019909
-0.0457295
0.000198466
-0.0414444
0.000189589
-0.0375669
0.000174435
-0.0340574
0.00015524
-0.030881
0.000134217
-0.0280056
0.000112989
-0.025401
9.27143e-05
-0.0230418
7.42759e-05
-0.0209027
5.8031e-05
-0.0189645
4.45038e-05
-0.0172069
3.38568e-05
-0.0156134
2.45339e-05
-0.0141681
1.81489e-05
-0.012857
1.33424e-05
-0.0116677
1.24155e-05
-0.0105887
4.97214e-06
-0.00960995
5.59905e-06
-0.00872097
-1.32338e-07
-0.00791534
-2.37875e-06
-0.00718307
-4.14836e-06
-0.00651917
-6.69858e-06
-0.00591637
-1.01007e-05
-0.00536928
-7.66971e-06
-0.00487251
-1.652e-05
-0.00442172
-1.98801e-05
-0.473775
-1.95864e-05
-0.429924
-1.59871e-05
-0.390283
-1.68409e-05
-0.354203
-1.62413e-05
-0.321482
-1.64385e-05
-0.291763
-1.6773e-05
-0.264797
-1.73948e-05
-0.240324
-1.81054e-05
-0.218107
-1.88332e-05
-0.197948
-1.93303e-05
-0.179651
-1.92798e-05
-0.163044
-1.8248e-05
-0.147972
-1.55947e-05
-0.13429
-1.05512e-05
-0.121864
-2.1933e-06
-0.11058
1.04089e-05
-0.100328
2.79947e-05
-0.0910116
5.08285e-05
-0.0825427
7.83752e-05
-0.0748368
0.000109032
-0.0678412
0.000140102
-0.0614792
0.000168266
-0.0557103
0.000190193
-0.0504792
0.000203456
-0.0457375
0.000207074
-0.0414475
0.000201602
-0.0375661
0.000188777
-0.0340538
0.000170835
-0.0308757
0.000150024
-0.0279996
0.00012834
-0.0253951
0.000107136
-0.0230364
8.73181e-05
-0.020898
6.96201e-05
-0.0189607
5.41963e-05
-0.0172039
4.1549e-05
-0.0156112
3.16672e-05
-0.0141666
2.29035e-05
-0.0128561
1.72578e-05
-0.0116673
1.29666e-05
-0.0105889
1.27583e-05
-0.00961002
5.17119e-06
-0.00872167
6.24153e-06
-0.00791589
5.09083e-07
-0.00718381
-1.64923e-06
-0.00651999
-3.35743e-06
-0.00591726
-5.92447e-06
-0.00537013
-9.32152e-06
-0.00487352
-7.09429e-06
-0.00442265
-1.58076e-05
-0.00401346
-1.94078e-05
-0.473769
-1.88033e-05
-0.429929
-1.53447e-05
-0.390282
-1.62421e-05
-0.354204
-1.56659e-05
-0.321482
-1.58988e-05
-0.291763
-1.62571e-05
-0.264797
-1.69091e-05
-0.240324
-1.76826e-05
-0.218107
-1.84991e-05
-0.197947
-1.91544e-05
-0.179651
-1.93777e-05
-0.163045
-1.87316e-05
-0.147973
-1.66923e-05
-0.134293
-1.24874e-05
-0.12187