/*--------------------------------*- C++ -*----------------------------------*\
  =========                 |
  \\      /  F ield         | OpenFOAM: The Open Source CFD Toolbox
   \\    /   O peration     | Website:  https://openfoam.org
    \\  /    A nd           | Version:  dev
     \\/     M anipulation  |
\*---------------------------------------------------------------------------*/
FoamFile
{
    version     2.0;
    format      ascii;
    class       volVectorField;
    location    "50";
    object      U;
}
// * * * * * * * * * * * * * * * * * * * * * * * * * * * * * * * * * * * * * //

dimensions      [0 1 -1 0 0 0 0];

internalField   nonuniform List<vector> 
29380
(
(51.1101 0.00100809 0)
(51.1114 0.00108968 0)
(51.091 0.00363283 0)
(51.112 0.000873995 0)
(51.0911 0.00395538 0)
(51.1144 0.000333247 0)
(51.1127 0.000549922 0)
(51.0913 0.0041677 0)
(51.1149 0.000364171 0)
(51.1125 0.00422506 0)
(51.1134 7.53279e-05 0)
(51.0915 0.00442357 0)
(51.1153 0.000278019 0)
(51.1127 0.00458654 0)
(51.121 0.00117223 0)
(51.1141 -0.000528251 0)
(51.0917 0.00462759 0)
(51.1157 0.000181259 0)
(51.1129 0.00479353 0)
(51.121 0.00143036 0)
(51.1224 0.00372021 0)
(51.1148 -0.001255 0)
(51.092 0.00477538 0)
(51.1162 8.87176e-06 0)
(51.1132 0.00505167 0)
(51.1212 0.00159406 0)
(51.1223 0.00413453 0)
(51.1257 0.00158377 0)
(51.1156 -0.00209452 0)
(51.0922 0.00485541 0)
(51.1167 -0.000247903 0)
(51.1136 0.00525196 0)
(51.1215 0.00183183 0)
(51.1223 0.00445119 0)
(51.1252 0.00204231 0)
(51.1266 0.00272046 0)
(51.1163 -0.00304099 0)
(51.0925 0.00485926 0)
(51.1172 -0.000601442 0)
(51.114 0.00538428 0)
(51.1219 0.00203385 0)
(51.1224 0.00488475 0)
(51.1251 0.00245242 0)
(51.1258 0.00325424 0)
(51.1273 0.0012609 0)
(51.1171 -0.00408595 0)
(51.0927 0.00478343 0)
(51.1178 -0.00106268 0)
(51.1145 0.00541933 0)
(51.1224 0.00218387 0)
(51.1227 0.00530793 0)
(51.1251 0.00302502 0)
(51.1255 0.0037612 0)
(51.1261 0.00188158 0)
(51.1266 0.001435 0)
(51.1179 -0.00522551 0)
(51.0929 0.00462253 0)
(51.1183 -0.00163429 0)
(51.1151 0.00534315 0)
(51.123 0.00224818 0)
(51.1232 0.00569691 0)
(51.1253 0.00362233 0)
(51.1253 0.00447089 0)
(51.1256 0.00250091 0)
(51.1251 0.00210697 0)
(51.125 0.000324466 0)
(51.1186 -0.00645458 0)
(51.093 0.00437573 0)
(51.1189 -0.00231941 0)
(51.1157 0.00513955 0)
(51.1237 0.00220288 0)
(51.1238 0.00601255 0)
(51.1257 0.00422352 0)
(51.1253 0.0052426 0)
(51.1251 0.00336451 0)
(51.1243 0.00279429 0)
(51.123 0.00107881 0)
(51.1219 -6.37659e-05 0)
(51.1193 -0.00777307 0)
(51.0931 0.00403864 0)
(51.1194 -0.00311543 0)
(51.1163 0.00480427 0)
(51.1245 0.00203146 0)
(51.1246 0.00622079 0)
(51.1263 0.00477883 0)
(51.1256 0.0060534 0)
(51.1249 0.00432987 0)
(51.1236 0.00375715 0)
(51.122 0.00184752 0)
(51.1195 0.000738608 0)
(51.1172 -0.0010312 0)
(51.12 -0.00918061 0)
(51.0932 0.00361084 0)
(51.1199 -0.0040204 0)
(51.117 0.00433077 0)
(51.1253 0.00171993 0)
(51.1255 0.0062957 0)
(51.127 0.00525207 0)
(51.1261 0.0068545 0)
(51.125 0.00538009 0)
(51.1231 0.00486053 0)
(51.1209 0.0029185 0)
(51.1182 0.00154529 0)
(51.1143 -0.000162824 0)
(51.1103 -0.00171445 0)
(51.1206 -0.0106815 0)
(51.0933 0.00308773 0)
(51.1204 -0.00502877 0)
(51.1176 0.00372248 0)
(51.1262 0.0012637 0)
(51.1265 0.00621642 0)
(51.128 0.00560591 0)
(51.1268 0.00760041 0)
(51.1253 0.00646466 0)
(51.1229 0.0060933 0)
(51.1202 0.00416415 0)
(51.1168 0.00266975 0)
(51.1127 0.000677349 0)
(51.107 -0.000804988 0)
(51.101 -0.00262219 0)
(51.1212 -0.0122802 0)
(51.0933 0.00246786 0)
(51.1208 -0.00613618 0)
(51.1182 0.00298003 0)
(51.1271 0.0006593 0)
(51.1276 0.00596827 0)
(51.1291 0.00581106 0)
(51.1278 0.00825069 0)
(51.1259 0.00754105 0)
(51.123 0.00741095 0)
(51.1197 0.00558479 0)
(51.1157 0.00399794 0)
(51.111 0.00184431 0)
(51.1052 3.4059e-05 0)
(51.0973 -0.00166821 0)
(51.0886 -0.00339604 0)
(51.1217 -0.0139852 0)
(51.0932 0.00174574 0)
(51.1211 -0.00733672 0)
(51.1188 0.00211143 0)
(51.1279 -8.84295e-05 0)
(51.1287 0.00554339 0)
(51.1304 0.0058429 0)
(51.129 0.00876323 0)
(51.1268 0.00855922 0)
(51.1234 0.00877131 0)
(51.1195 0.00714284 0)
(51.1149 0.00554266 0)
(51.1096 0.00323717 0)
(51.1031 0.00119855 0)
(51.0952 -0.000843399 0)
(51.0844 -0.00241655 0)
(51.0727 -0.0042134 0)
(51.1221 -0.0158049 0)
(51.0932 0.0009187 0)
(51.1214 -0.00862605 0)
(51.1194 0.00112103 0)
(51.1288 -0.000975029 0)
(51.1299 0.00493967 0)
(51.1317 0.00568371 0)
(51.1304 0.00910369 0)
(51.128 0.00947311 0)
(51.1242 0.0101271 0)
(51.1196 0.00880353 0)
(51.1143 0.00727785 0)
(51.1083 0.00488363 0)
(51.1013 0.00260439 0)
(51.0927 0.000297378 0)
(51.0821 -0.00162781 0)
(51.0681 -0.00321474 0)
(51.0526 -0.00493722 0)
(51.1224 -0.0177508 0)
(51.0931 -1.94647e-05 0)
(51.1217 -0.00999973 0)
(51.1199 1.77931e-05 0)
(51.1296 -0.00199029 0)
(51.131 0.00416049 0)
(51.1332 0.00532261 0)
(51.132 0.00924069 0)
(51.1295 0.010234 0)
(51.1253 0.0114248 0)
(51.1201 0.0105206 0)
(51.1141 0.00917742 0)
(51.1073 0.00677062 0)
(51.0996 0.00429555 0)
(51.0905 0.00168927 0)
(51.0793 -0.000545955 0)
(51.0656 -0.00247043 0)
(51.0477 -0.00393707 0)
(51.0279 -0.00562068 0)
(51.1227 -0.0198345 0)
(51.0931 -0.00107238 0)
(51.1219 -0.0114552 0)
(51.1203 -0.00119351 0)
(51.1303 -0.00312613 0)
(51.1321 0.00321336 0)
(51.1346 0.00475596 0)
(51.1336 0.00915381 0)
(51.1312 0.0108001 0)
(51.1267 0.0126081 0)
(51.1209 0.0122411 0)
(51.1142 0.0112033 0)
(51.1067 0.00888411 0)
(51.0982 0.00627349 0)
(51.0884 0.00339064 0)
(51.0767 0.000791313 0)
(51.0625 -0.00146854 0)
(51.045 -0.00324318 0)
(51.0228 -0.00463188 0)
(50.9984 -0.00620896 0)
(51.1229 -0.0220691 0)
(51.093 -0.0022464 0)
(51.1221 -0.0129905 0)
(51.1208 -0.00250574 0)
(51.131 -0.00437148 0)
(51.1332 0.00210866 0)
(51.1361 0.00398612 0)
(51.1354 0.00882681 0)
(51.133 0.0111315 0)
(51.1284 0.0136218 0)
(51.1222 0.0139057 0)
(51.1147 0.0133061 0)
(51.1064 0.0111947 0)
(51.0971 0.0085367 0)
(51.0865 0.00541919 0)
(51.0742 0.00245646 0)
(51.0595 -0.000210539 0)
(51.0416 -0.00234609 0)
(51.0201 -0.00398556 0)
(50.9933 -0.00525073 0)
(50.964 -0.00670871 0)
(51.123 -0.0244673 0)
(51.093 -0.00354545 0)
(51.1223 -0.0146057 0)
(51.1212 -0.00391604 0)
(51.1316 -0.00571876 0)
(51.1342 0.00085832 0)
(51.1375 0.00302061 0)
(51.1372 0.00825524 0)
(51.135 0.0112024 0)
(51.1304 0.0144134 0)
(51.1238 0.0154466 0)
(51.1157 0.0154258 0)
(51.1065 0.0136625 0)
(51.0963 0.0110684 0)
(51.0849 0.00778656 0)
(51.0719 0.00448384 0)
(51.0566 0.00138498 0)
(51.0384 -0.00119497 0)
(51.0165 -0.00320732 0)
(50.9904 -0.00464225 0)
(50.9588 -0.00579603 0)
(50.9246 -0.00709512 0)
(51.123 -0.027043 0)
(51.093 -0.00497533 0)
(51.1224 -0.0163018 0)
(51.1216 -0.00542058 0)
(51.1322 -0.00715956 0)
(51.1352 -0.000525496 0)
(51.1388 0.00187067 0)
(51.139 0.0074392 0)
(51.1372 0.0109898 0)
(51.1326 0.0149362 0)
(51.1258 0.0168003 0)
(51.1171 0.0174944 0)
(51.1071 0.0162334 0)
(51.0959 0.013839 0)
(51.0835 0.0104878 0)
(51.0697 0.00689758 0)
(51.0538 0.00337104 0)
(51.0351 0.000297266 0)
(51.013 -0.00217669 0)
(50.9868 -0.0039955 0)
(50.9561 -0.00521045 0)
(50.9198 -0.00624586 0)
(50.8807 -0.00736796 0)
(51.1229 -0.0298091 0)
(51.093 -0.00653952 0)
(51.1225 -0.0180814 0)
(51.1219 -0.00701933 0)
(51.1327 -0.00868938 0)
(51.136 -0.00203138 0)
(51.1401 0.000549565 0)
(51.1407 0.00638731 0)
(51.1393 0.0104864 0)
(51.135 0.015155 0)
(51.1282 0.0179016 0)
(51.119 0.019434 0)
(51.1082 0.0188387 0)
(51.0959 0.0168046 0)
(51.0826 0.0135082 0)
(51.0678 0.00970589 0)
(51.0511 0.00578294 0)
(51.0319 0.00220169 0)
(51.0095 -0.000810789 0)
(50.9832 -0.00309698 0)
(50.9524 -0.00469744 0)
(50.9172 -0.00566377 0)
(50.8764 -0.0065948 0)
(50.8329 -0.00752006 0)
(51.1227 -0.0327789 0)
(51.093 -0.00824272 0)
(51.1226 -0.0199483 0)
(51.1223 -0.00871173 0)
(51.1332 -0.010304 0)
(51.1368 -0.00364946 0)
(51.1412 -0.000928612 0)
(51.1424 0.00511123 0)
(51.1415 0.0096883 0)
(51.1376 0.0150415 0)
(51.1308 0.0186959 0)
(51.1213 0.0211696 0)
(51.1098 0.0214009 0)
(51.0966 0.0199057 0)
(51.082 0.0168173 0)
(51.0662 0.0129064 0)
(51.0486 0.00863996 0)
(51.0287 0.00456403 0)
(51.0059 0.00098213 0)
(50.9795 -0.00187547 0)
(50.9488 -0.00392958 0)
(50.9137 -0.00528439 0)
(50.8741 -0.00599698 0)
(50.8293 -0.00683672 0)
(50.7821 -0.00755247 0)
(51.1225 -0.0359649 0)
(51.0931 -0.0100873 0)
(51.1227 -0.021907 0)
(51.1226 -0.0105004 0)
(51.1336 -0.0120026 0)
(51.1375 -0.00537189 0)
(51.1423 -0.00255037 0)
(51.144 0.00362684 0)
(51.1436 0.00860467 0)
(51.1402 0.0145822 0)
(51.1337 0.0191362 0)
(51.1241 0.0226239 0)
(51.1119 0.0238303 0)
(51.0977 0.0230653 0)
(51.0821 0.0203667 0)
(51.065 0.0164854 0)
(51.0464 0.0119551 0)
(51.0257 0.00741486 0)
(51.0023 0.00325606 0)
(50.9756 -0.000219026 0)
(50.9451 -0.00285904 0)
(50.9102 -0.00464289 0)
(50.8709 -0.00574319 0)
(50.8274 -0.00620148 0)
(50.7795 -0.00696639 0)
(50.7292 -0.00746703 0)
(51.1222 -0.0393792 0)
(51.0932 -0.0120767 0)
(51.1228 -0.0239629 0)
(51.1229 -0.0123872 0)
(51.134 -0.013785 0)
(51.1382 -0.00719285 0)
(51.1433 -0.00430353 0)
(51.1454 0.00195044 0)
(51.1457 0.00724653 0)
(51.1428 0.013771 0)
(51.1367 0.0191879 0)
(51.1271 0.0237303 0)
(51.1146 0.02604 0)
(51.0995 0.0261959 0)
(51.0827 0.024091 0)
(51.0644 0.0204107 0)
(51.0446 0.0157306 0)
(51.0229 0.0107779 0)
(50.9988 0.00605078 0)
(50.9718 0.0019344 0)
(50.9411 -0.00135093 0)
(50.9065 -0.00372313 0)
(50.8677 -0.00521441 0)
(50.8247 -0.0060627 0)
(50.7781 -0.00627691 0)
(50.7279 -0.00698549 0)
(50.6756 -0.0072728 0)
(51.1218 -0.043033 0)
(51.0934 -0.0142119 0)
(51.1228 -0.0261222 0)
(51.1231 -0.0143763 0)
(51.1343 -0.0156535 0)
(51.1388 -0.00910879 0)
(51.1442 -0.00617783 0)
(51.1468 9.89131e-05 0)
(51.1476 0.00563285 0)
(51.1453 0.0126148 0)
(51.1398 0.0188296 0)
(51.1304 0.0244306 0)
(51.1177 0.0279396 0)
(51.1019 0.0291968 0)
(51.084 0.0279057 0)
(51.0643 0.0246306 0)
(51.0432 0.0199517 0)
(51.0204 0.0146729 0)
(50.9955 0.00940187 0)
(50.9679 0.00463275 0)
(50.9371 0.000660257 0)
(50.9026 -0.00237038 0)
(50.8642 -0.00443801 0)
(50.8219 -0.00563142 0)
(50.776 -0.00623722 0)
(50.7272 -0.00622554 0)
(50.6758 -0.00689616 0)
(50.6225 -0.00697912 0)
(51.1213 -0.0469369 0)
(51.0936 -0.0164947 0)
(51.1229 -0.0283912 0)
(51.1234 -0.0164713 0)
(51.1346 -0.0176106 0)
(51.1393 -0.0111178 0)
(51.145 -0.00816528 0)
(51.148 -0.00191231 0)
(51.1494 0.00378187 0)
(51.1478 0.0111254 0)
(51.1429 0.018052 0)
(51.134 0.0246798 0)
(51.1212 0.0294486 0)
(51.1049 0.0319665 0)
(51.086 0.0317129 0)
(51.065 0.0290735 0)
(51.0424 0.0245861 0)
(51.0183 0.0191044 0)
(50.9923 0.0133449 0)
(50.9641 0.00791892 0)
(50.933 0.00322981 0)
(50.8986 -0.000515051 0)
(50.8605 -0.00323774 0)
(50.8189 -0.00498597 0)
(50.7738 -0.00588327 0)
(50.7259 -0.0062676 0)
(50.6759 -0.00605657 0)
(50.6244 -0.0067088 0)
(50.5713 -0.00659898 0)
(51.1208 -0.0510996 0)
(51.0938 -0.018925 0)
(51.1229 -0.0307767 0)
(51.1236 -0.0186771 0)
(51.1348 -0.0196606 0)
(51.1397 -0.0132197 0)
(51.1456 -0.0102598 0)
(51.1491 -0.00406935 0)
(51.1511 0.00171535 0)
(51.1502 0.00932322 0)
(51.146 0.0168584 0)
(51.1376 0.0244476 0)
(51.1251 0.0304947 0)
(51.1085 0.0344013 0)
(51.0887 0.0354016 0)
(51.0664 0.033648 0)
(51.0423 0.0295797 0)
(51.0167 0.0240596 0)
(50.9895 0.0179013 0)
(50.9604 0.0118454 0)
(50.9288 0.00640809 0)
(50.8944 0.00190393 0)
(50.8566 -0.00154515 0)
(50.8155 -0.00393186 0)
(50.7713 -0.00535178 0)
(50.7244 -0.00597006 0)
(50.6755 -0.00616084 0)
(50.6253 -0.00578191 0)
(50.575 -0.00642927 0)
(50.523 -0.00614304 0)
(51.1202 -0.0555293 0)
(51.0941 -0.0215029 0)
(51.123 -0.0332853 0)
(51.1239 -0.0209979 0)
(51.135 -0.0218076 0)
(51.1401 -0.0154155 0)
(51.1462 -0.0124575 0)
(51.1501 -0.00636044 0)
(51.1526 -0.00054791 0)
(51.1524 0.00723001 0)
(51.149 0.0152616 0)
(51.1414 0.0237187 0)
(51.1292 0.031022 0)
(51.1126 0.0364041 0)
(51.092 0.0388527 0)
(51.0685 0.0382458 0)
(51.0429 0.0348568 0)
(51.0158 0.0295057 0)
(50.9872 0.0230816 0)
(50.957 0.0164499 0)
(50.9248 0.0102624 0)
(50.8901 0.00493837 0)
(50.8525 0.000707431 0)
(50.812 -0.00239981 0)
(50.7685 -0.00442836 0)
(50.7226 -0.00553098 0)
(50.6748 -0.00589798 0)
(50.626 -0.00592997 0)
(50.5768 -0.00541526 0)
(50.5287 -0.00606837 0)
(50.4789 -0.0056267 0)
(51.1196 -0.0602312 0)
(51.0944 -0.0242269 0)
(51.123 -0.0359238 0)
(51.1241 -0.0234386 0)
(51.1352 -0.0240569 0)
(51.1404 -0.0177075 0)
(51.1467 -0.0147563 0)
(51.1509 -0.00877601 0)
(51.1539 -0.00298843 0)
(51.1545 0.00487138 0)
(51.1519 0.0132829 0)
(51.1451 0.0224923 0)
(51.1336 0.030988 0)
(51.1171 0.0378855 0)
(51.0961 0.0419476 0)
(51.0715 0.0427453 0)
(51.0444 0.0403204 0)
(51.0156 0.0353873 0)
(50.9854 0.0288758 0)
(50.9539 0.0217643 0)
(50.9208 0.0148438 0)
(50.8857 0.00867388 0)
(50.8482 0.00357064 0)
(50.8081 -0.000319672 0)
(50.7654 -0.00305085 0)
(50.7205 -0.0047224 0)
(50.6738 -0.00553051 0)
(50.6262 -0.00568208 0)
(50.5786 -0.00559002 0)
(50.5314 -0.0049687 0)
(50.4865 -0.00563216 0)
(50.4397 -0.00506163 0)
(51.1189 -0.0652104 0)
(51.0948 -0.0270949 0)
(51.123 -0.0386984 0)
(51.1243 -0.026003 0)
(51.1354 -0.0264129 0)
(51.1407 -0.0200983 0)
(51.1472 -0.0171555 0)
(51.1517 -0.0113088 0)
(51.1551 -0.00559053 0)
(51.1564 0.00227166 0)
(51.1546 0.0109483 0)
(51.1488 0.0207802 0)
(51.138 0.030371 0)
(51.1219 0.0387758 0)
(51.1008 0.0445687 0)
(51.0753 0.0470098 0)
(51.0468 0.0458531 0)
(51.0163 0.0416276 0)
(50.9843 0.0352523 0)
(50.9513 0.0278029 0)
(50.9171 0.0202074 0)
(50.8814 0.0131715 0)
(50.8438 0.00714972 0)
(50.804 0.00235222 0)
(50.762 -0.00114382 0)
(50.718 -0.00348582 0)
(50.6725 -0.00481628 0)
(50.6262 -0.00536445 0)
(50.5798 -0.00534135 0)
(50.5344 -0.00515648 0)
(50.4902 -0.00445345 0)
(50.4492 -0.00513131 0)
(50.406 -0.00447032 0)
(51.1182 -0.0704683 0)
(51.0952 -0.0301036 0)
(51.123 -0.0416144 0)
(51.1246 -0.0286954 0)
(51.1355 -0.0288807 0)
(51.141 -0.0225913 0)
(51.1475 -0.0196556 0)
(51.1523 -0.0139534 0)
(51.1562 -0.00833962 0)
(51.158 -0.000544384 0)
(51.1571 0.00828814 0)
(51.1523 0.0186051 0)
(51.1425 0.0291637 0)
(51.127 0.0390175 0)
(51.106 0.0466092 0)
(51.0799 0.0509033 0)
(51.0501 0.05132 0)
(51.0179 0.0481255 0)
(50.9841 0.0421583 0)
(50.9494 0.0345579 0)
(50.9138 0.0263905 0)
(50.8772 0.0185083 0)
(50.8392 0.0115101 0)
(50.7997 0.00574596 0)
(50.7583 0.00132447 0)
(50.7152 -0.00174509 0)
(50.6708 -0.00370804 0)
(50.6257 -0.0047268 0)
(50.5807 -0.0050567 0)
(50.5366 -0.00489481 0)
(50.4943 -0.00464288 0)
(50.4539 -0.00387929 0)
(50.4175 -0.00457522 0)
(50.3781 -0.0038706 0)
(51.1174 -0.0760051 0)
(51.0957 -0.0332489 0)
(51.123 -0.0446768 0)
(51.1248 -0.0315181 0)
(51.1357 -0.0314645 0)
(51.1412 -0.0251898 0)
(51.1478 -0.0222583 0)
(51.1528 -0.0167065 0)
(51.1571 -0.0112246 0)
(51.1595 -0.0035553 0)
(51.1594 0.00533311 0)
(51.1556 0.0159971 0)
(51.1469 0.0273772 0)
(51.1323 0.0385804 0)
(51.1117 0.0479798 0)
(51.0853 0.0542851 0)
(51.0544 0.0565662 0)
(51.0205 0.0547538 0)
(50.9848 0.0495185 0)
(50.9482 0.0420042 0)
(50.911 0.0334093 0)
(50.8733 0.0247465 0)
(50.8347 0.0167544 0)
(50.7951 0.00992552 0)
(50.7542 0.00451285 0)
(50.712 0.00051279 0)
(50.6687 -0.00212363 0)
(50.6248 -0.00372782 0)
(50.5812 -0.00447597 0)
(50.5385 -0.00462693 0)
(50.4976 -0.00436209 0)
(50.4591 -0.00406285 0)
(50.4229 -0.00325574 0)
(50.3914 -0.00397546 0)
(50.3562 -0.00329382 0)
(51.1166 -0.0818184 0)
(51.0962 -0.036525 0)
(51.1231 -0.0478892 0)
(51.125 -0.0344738 0)
(51.1358 -0.0341677 0)
(51.1414 -0.0278969 0)
(51.1481 -0.0249652 0)
(51.1533 -0.0195659 0)
(51.1579 -0.0142362 0)
(51.1608 -0.00674092 0)
(51.1615 0.00211395 0)
(51.1587 0.0129921 0)
(51.1511 0.0250346 0)
(51.1377 0.0374484 0)
(51.1177 0.0486087 0)
(51.0913 0.0570288 0)
(51.0597 0.0614332 0)
(51.0242 0.0613628 0)
(50.9866 0.0572276 0)
(50.9479 0.0500966 0)
(50.9089 0.041265 0)
(50.8697 0.0319219 0)
(50.8303 0.0229656 0)
(50.7904 0.0150195 0)
(50.7498 0.00847675 0)
(50.7083 0.00348324 0)
(50.6661 -7.84123e-05 0)
(50.6235 -0.00228646 0)
(50.5812 -0.00357286 0)
(50.5399 -0.00409024 0)
(50.5004 -0.00410358 0)
(50.4633 -0.00376062 0)
(50.4293 -0.0034255 0)
(50.3977 -0.00258864 0)
(50.3712 -0.00334448 0)
(50.3401 -0.00276026 0)
(51.1158 -0.087902 0)
(51.0967 -0.0399255 0)
(51.1231 -0.0512542 0)
(51.1252 -0.0375629 0)
(51.1359 -0.0369928 0)
(51.1416 -0.030715 0)
(51.1483 -0.0277785 0)
(51.1536 -0.0225306 0)
(51.1585 -0.0173677 0)
(51.162 -0.010085 0)
(51.1634 -0.00134074 0)
(51.1616 0.00962779 0)
(51.1552 0.0221706 0)
(51.1429 0.0356319 0)
(51.1239 0.0484526 0)
(51.098 0.0590222 0)
(51.0658 0.065756 0)
(51.0291 0.0677775 0)
(50.9895 0.0651479 0)
(50.9486 0.0587602 0)
(50.9076 0.0499463 0)
(50.8667 0.0400611 0)
(50.8262 0.0301997 0)
(50.7857 0.0211344 0)
(50.745 0.0133748 0)
(50.7041 0.00720326 0)
(50.6629 0.00266761 0)
(50.6216 -0.000452192 0)
(50.5807 -0.00226065 0)
(50.5408 -0.00326632 0)
(50.5027 -0.00359936 0)
(50.4671 -0.00350601 0)
(50.4344 -0.0031038 0)
(50.405 -0.00273704 0)
(50.3782 -0.00188332 0)
(50.3565 -0.00269088 0)
(50.3294 -0.00231398 0)
(51.115 -0.0942479 0)
(51.0972 -0.043442 0)
(51.1231 -0.0547734 0)
(51.1254 -0.0407855 0)
(51.136 -0.0399413 0)
(51.1417 -0.0336461 0)
(51.1485 -0.0306996 0)
(51.1539 -0.0256004 0)
(51.1591 -0.0206138 0)
(51.1629 -0.0135734 0)
(51.165 -0.00500487 0)
(51.1642 0.00594276 0)
(51.159 0.0188262 0)
(51.1481 0.0331523 0)
(51.1303 0.0474884 0)
(51.105 0.060178 0)
(51.0728 0.0693836 0)
(51.035 0.0738158 0)
(50.9937 0.0731123 0)
(50.9506 0.0678832 0)
(50.9073 0.0594129 0)
(50.8644 0.0491844 0)
(50.8224 0.038502 0)
(50.781 0.02834 0)
(50.7401 0.0193326 0)
(50.6995 0.0118665 0)
(50.6592 0.0061229 0)
(50.619 0.00206865 0)
(50.5795 -0.000633429 0)
(50.5411 -0.00206988 0)
(50.5044 -0.0028458 0)
(50.4702 -0.00303043 0)
(50.439 -0.00285506 0)
(50.4109 -0.00239789 0)
(50.3863 -0.00199691 0)
(50.3641 -0.00113847 0)
(50.3471 -0.00203662 0)
(50.3236 -0.00198409 0)
(51.1142 -0.100845 0)
(51.0977 -0.0470651 0)
(51.1231 -0.0584458 0)
(51.1256 -0.0441401 0)
(51.1361 -0.0430135 0)
(51.1418 -0.0366906 0)
(51.1486 -0.0337296 0)
(51.1542 -0.0287746 0)
(51.1595 -0.023971 0)
(51.1638 -0.0171949 0)
(51.1665 -0.00885576 0)
(51.1665 0.00197336 0)
(51.1626 0.0150469 0)
(51.1531 0.0300498 0)
(51.1366 0.0457215 0)
(51.1124 0.0604361 0)
(51.0805 0.0721806 0)
(51.0421 0.0792864 0)
(50.9992 0.0809239 0)
(50.9539 0.0773156 0)
(50.9081 0.0695891 0)
(50.863 0.0592893 0)
(50.8192 0.0479227 0)
(50.7766 0.0366984 0)
(50.7352 0.026438 0)
(50.6946 0.0176202 0)
(50.6548 0.0105227 0)
(50.6158 0.00524301 0)
(50.5776 0.00166435 0)
(50.5407 -0.000644068 0)
(50.5055 -0.0017503 0)
(50.4727 -0.00233548 0)
(50.4429 -0.00240471 0)
(50.4163 -0.00215699 0)
(50.393 -0.00164315 0)
(50.3731 -0.00120026 0)
(50.3552 -0.000363369 0)
(50.3425 -0.00139429 0)
(50.3223 -0.00179984 0)
(51.1133 -0.107677 0)
(51.0983 -0.0507846 0)
(51.1231 -0.0622702 0)
(51.1258 -0.0476236 0)
(51.1361 -0.0462088 0)
(51.1419 -0.0398486 0)
(51.1487 -0.0368686 0)
(51.1544 -0.0320529 0)
(51.1599 -0.0274355 0)
(51.1644 -0.0209402 0)
(51.1677 -0.0128737 0)
(51.1686 -0.00224639 0)
(51.1658 0.0108789 0)
(51.1577 0.02637 0)
(51.1428 0.0431739 0)
(51.12 0.0597651 0)
(51.0888 0.0740395 0)
(51.0502 0.0840122 0)
(51.006 0.088374 0)
(50.9586 0.0868727 0)
(50.9103 0.0803563 0)
(50.8627 0.0703389 0)
(50.8167 0.0584951 0)
(50.7726 0.0462843 0)
(50.7303 0.034759 0)
(50.6895 0.0245621 0)
(50.65 0.016031 0)
(50.6118 0.00935671 0)
(50.5749 0.00454735 0)
(50.5395 0.00143734 0)
(50.5059 -0.000518286 0)
(50.4746 -0.00133004 0)
(50.4461 -0.00176559 0)
(50.4209 -0.00173766 0)
(50.399 -0.00141854 0)
(50.3803 -0.000831134 0)
(50.3649 -0.000344467 0)
(50.351 0.000444643 0)
(50.342 -0.000775139 0)
(50.3247 -0.00194942 0)
(51.1125 -0.114728 0)
(51.0989 -0.054587 0)
(51.1231 -0.0662436 0)
(51.126 -0.0512319 0)
(51.1362 -0.0495243 0)
(51.142 -0.0431187 0)
(51.1488 -0.040116 0)
(51.1545 -0.035434 0)
(51.1601 -0.0310048 0)
(51.165 -0.0248013 0)
(51.1688 -0.0170421 0)
(51.1704 -0.0066862 0)
(51.1688 0.00636751 0)
(51.1621 0.0221675 0)
(51.1489 0.0398884 0)
(51.1276 0.0581623 0)
(51.0975 0.0748834 0)
(51.0591 0.0878324 0)
(51.0141 0.0952448 0)
(50.9648 0.0963353 0)
(50.9139 0.0915528 0)
(50.8636 0.0822579 0)
(50.8151 0.0702262 0)
(50.769 0.0571638 0)
(50.7255 0.0443907 0)
(50.6841 0.0327679 0)
(50.6448 0.0227628 0)
(50.6072 0.0145909 0)
(50.5713 0.00835848 0)
(50.5373 0.00402057 0)
(50.5052 0.00135477 0)
(50.4755 -0.000283399 0)
(50.4486 -0.000838285 0)
(50.4246 -0.00115161 0)
(50.4041 -0.00103696 0)
(50.3869 -0.000629528 0)
(50.3726 4.524e-05 0)
(50.3612 0.000583263 0)
(50.3508 0.00128941 0)
(50.345 -0.000346276 0)
(50.3303 -0.00220983 0)
(51.1117 -0.121972 0)
(51.0994 -0.0584605 0)
(51.1231 -0.0703588 0)
(51.1262 -0.0549596 0)
(51.1363 -0.0529566 0)
(51.1421 -0.0464979 0)
(51.1488 -0.0434699 0)
(51.1546 -0.0389164 0)
(51.1603 -0.0346756 0)
(51.1655 -0.0287714 0)
(51.1696 -0.0213462 0)
(51.172 -0.0113193 0)
(51.1714 0.00155525 0)
(51.1662 0.0174965 0)
(51.1546 0.0359165 0)
(51.135 0.0556495 0)
(51.1064 0.0746682 0)
(51.0688 0.0906154 0)
(51.0234 0.101329 0)
(50.9726 0.105467 0)
(50.9193 0.102973 0)
(50.866 0.0949207 0)
(50.8147 0.0830835 0)
(50.7663 0.0693802 0)
(50.721 0.0554251 0)
(50.6787 0.0423439 0)
(50.6392 0.0307896 0)
(50.6019 0.0210711 0)
(50.5669 0.0132912 0)
(50.5341 0.00751767 0)
(50.5036 0.00363486 0)
(50.4755 0.00139295 0)
(50.4501 3.28351e-05 0)
(50.4277 -0.000299045 0)
(50.4084 -0.00051199 0)
(50.3925 -0.000301954 0)
(50.3796 0.000214505 0)
(50.3693 0.00100959 0)
(50.3614 0.00160316 0)
(50.354 0.00202459 0)
(50.351 0.000128396 0)
(50.3383 -0.00298863 0)
(51.1108 -0.129384 0)
(51.1 -0.062388 0)
(51.1231 -0.0746115 0)
(51.1264 -0.0587975 0)
(51.1363 -0.056501 0)
(51.1422 -0.0499824 0)
(51.1488 -0.0469269 0)
(51.1547 -0.0424975 0)
(51.1605 -0.0384447 0)
(51.1658 -0.0328443 0)
(51.1704 -0.0257735 0)
(51.1734 -0.0161215 0)
(51.1737 -0.00351883 0)
(51.1699 0.0124132 0)
(51.16 0.0313207 0)
(51.1423 0.0522695 0)
(51.1154 0.0733835 0)
(51.079 0.0922643 0)
(51.0337 0.106435 0)
(50.9818 0.114021 0)
(50.9263 0.114378 0)
(50.8701 0.108152 0)
(50.8157 0.0969918 0)
(50.7645 0.0829517 0)
(50.7171 0.0679398 0)
(50.6734 0.0534025 0)
(50.6333 0.0402254 0)
(50.5961 0.0288678 0)
(50.5617 0.0194933 0)
(50.5298 0.0121331 0)
(50.5007 0.0068092 0)
(50.4742 0.00336849 0)
(50.4505 0.00152347 0)
(50.4296 0.000403819 0)
(50.4119 0.000269602 0)
(50.3971 0.0001517 0)
(50.3856 0.000473025 0)
(50.3767 0.00114476 0)
(50.3698 0.00209156 0)
(50.365 0.00259159 0)
(50.3601 0.0029031 0)
(50.3592 0.000245521 0)
(50.3484 -0.00405081 0)
(51.11 -0.136939 0)
(51.1006 -0.0663528 0)
(51.1231 -0.0789896 0)
(51.1266 -0.062739 0)
(51.1364 -0.060149 0)
(51.1422 -0.0535671 0)
(51.1489 -0.0504826 0)
(51.1547 -0.046173 0)
(51.1606 -0.0423082 0)
(51.1661 -0.0370139 0)
(51.171 -0.0303126 0)
(51.1745 -0.0210721 0)
(51.1758 -0.00881853 0)
(51.1732 0.0069695 0)
(51.1651 0.0261648 0)
(51.1493 0.04808 0)
(51.1244 0.0710467 0)
(51.0895 0.0927188 0)
(51.0449 0.110407 0)
(50.9925 0.121758 0)
(50.9351 0.1255 0)
(50.8761 0.121729 0)
(50.8184 0.11182 0)
(50.764 0.0978542 0)
(50.714 0.0819952 0)
(50.6684 0.0660443 0)
(50.6272 0.0511972 0)
(50.5898 0.0380943 0)
(50.5557 0.02702 0)
(50.5246 0.01803 0)
(50.4966 0.0110882 0)
(50.4716 0.00621623 0)
(50.4496 0.0031966 0)
(50.4304 0.00172187 0)
(50.4142 0.00081022 0)
(50.4009 0.000852284 0)
(50.3905 0.000834795 0)
(50.3828 0.00131338 0)
(50.3774 0.0021934 0)
(50.3736 0.00319413 0)
(50.3712 0.00382285 0)
(50.3684 0.00353704 0)
(50.3692 0.000218745 0)
(50.3598 -0.00626445 0)
(51.1092 -0.144599 0)
(51.1012 -0.0703407 0)
(51.1231 -0.0834833 0)
(51.1268 -0.0667707 0)
(51.1365 -0.0638946 0)
(51.1423 -0.0572434 0)
(51.1489 -0.0541315 0)
(51.1547 -0.0499381 0)
(51.1606 -0.0462608 0)
(51.1663 -0.0412745 0)
(51.1714 -0.0349535 0)
(51.1755 -0.0261526 0)
(51.1776 -0.014312 0)
(51.1762 0.0012165 0)
(51.1697 0.0205153 0)
(51.156 0.0431503 0)
(51.1332 0.0677013 0)
(51.1002 0.0919563 0)
(51.0568 0.113123 0)
(51.0043 0.128455 0)
(50.9456 0.136062 0)
(50.884 0.13539 0)
(50.8229 0.127382 0)
(50.765 0.114015 0)
(50.7119 0.0976279 0)
(50.6639 0.0803727 0)
(50.6212 0.0638192 0)
(50.583 0.0488855 0)
(50.549 0.0359838 0)
(50.5185 0.0252574 0)
(50.4914 0.0166638 0)
(50.4677 0.0101496 0)
(50.4472 0.0057127 0)
(50.4298 0.0030957 0)
(50.4152 0.00196482 0)
(50.4035 0.00123009 0)
(50.3945 0.00144367 0)
(50.3879 0.00156068 0)
(50.3838 0.00225562 0)
(50.3813 0.00328767 0)
(50.3799 0.00460842 0)
(50.3796 0.00493119 0)
(50.3784 0.00413975 0)
(50.3804 -0.000741334 0)
(50.3722 -0.00837365 0)
(51.1084 -0.152329 0)
(51.1017 -0.0743286 0)
(51.123 -0.0880815 0)
(51.127 -0.0708812 0)
(51.1365 -0.0677255 0)
(51.1423 -0.0610049 0)
(51.1489 -0.0578645 0)
(51.1547 -0.0537867 0)
(51.1607 -0.0502964 0)
(51.1664 -0.0456184 0)
(51.1718 -0.0396868 0)
(51.1763 -0.0313465 0)
(51.1791 -0.0199703 0)
(51.1789 -0.00480037 0)
(51.174 0.0144369 0)
(51.1622 0.0375548 0)
(51.1417 0.063409 0)
(51.1109 0.0899876 0)
(51.0691 0.114503 0)
(51.0173 0.133927 0)
(50.9577 0.145789 0)
(50.8938 0.148836 0)
(50.8295 0.143438 0)
(50.7679 0.1313 0)
(50.7111 0.114825 0)
(50.6602 0.0964723 0)
(50.6153 0.0782224 0)
(50.576 0.061356 0)
(50.5416 0.0465228 0)
(50.5114 0.0339171 0)
(50.4851 0.0235667 0)
(50.4624 0.015384 0)
(50.4432 0.00928387 0)
(50.4275 0.00528148 0)
(50.4147 0.00304484 0)
(50.4046 0.00222968 0)
(50.3971 0.00165526 0)
(50.392 0.00205141 0)
(50.3889 0.00235647 0)
(50.3877 0.00323642 0)
(50.3877 0.00472821 0)
(50.3883 0.00599913 0)
(50.3895 0.00614231 0)
(50.3894 0.00398561 0)
(50.3924 -0.00144191 0)
(50.385 -0.0108519 0)
(51.1077 -0.16009 0)
(51.1023 -0.0782986 0)
(51.123 -0.092769 0)
(51.1271 -0.0750589 0)
(51.1366 -0.0716314 0)
(51.1424 -0.0648391 0)
(51.1489 -0.0616746 0)
(51.1547 -0.0577089 0)
(51.1607 -0.0544084 0)
(51.1665 -0.0500383 0)
(51.1721 -0.0445018 0)
(51.177 -0.0366392 0)
(51.1805 -0.0257683 0)
(51.1812 -0.0110384 0)
(51.1778 0.00799177 0)
(51.168 0.0313726 0)
(51.1499 0.0582467 0)
(51.1215 0.0868543 0)
(51.0817 0.11451 0)
(51.031 0.138018 0)
(50.9712 0.154424 0)
(50.9056 0.161761 0)
(50.8382 0.159699 0)
(50.7727 0.149511 0)
(50.712 0.133518 0)
(50.6576 0.114401 0)
(50.61 0.094543 0)
(50.5689 0.0756599 0)
(50.5336 0.0587372 0)
(50.5034 0.0441495 0)
(50.4776 0.031892 0)
(50.4558 0.0219441 0)
(50.4378 0.0141641 0)
(50.4235 0.00848438 0)
(50.4124 0.00489926 0)
(50.4043 0.00302273 0)
(50.3984 0.00250253 0)
(50.3947 0.00208346 0)
(50.393 0.00269989 0)
(50.3928 0.00316759 0)
(50.3941 0.00456403 0)
(50.3961 0.00620933 0)
(50.3982 0.00760839 0)
(50.4005 0.00681773 0)
(50.4012 0.00424979 0)
(50.4047 -0.00249193 0)
(50.398 -0.0148673 0)
(51.107 -0.167839 0)
(51.1029 -0.0822305 0)
(51.123 -0.0975294 0)
(51.1273 -0.0792867 0)
(51.1366 -0.075602 0)
(51.1424 -0.0687358 0)
(51.1488 -0.0655488 0)
(51.1546 -0.0616975 0)
(51.1606 -0.058586 0)
(51.1665 -0.0545261 0)
(51.1723 -0.0493885 0)
(51.1775 -0.0420154 0)
(51.1816 -0.0316833 0)
(51.1833 -0.0174606 0)
(51.1812 0.00123774 0)
(51.1734 0.0246809 0)
(51.1576 0.0523005 0)
(51.1318 0.0826215 0)
(51.0944 0.113146 0)
(51.0454 0.140632 0)
(50.986 0.161745 0)
(50.9193 0.173848 0)
(50.8492 0.17584 0)
(50.7798 0.168389 0)
(50.7149 0.153568 0)
(50.6564 0.134159 0)
(50.6054 0.1129 0)
(50.5619 0.0919676 0)
(50.5253 0.0727917 0)
(50.4946 0.0560258 0)
(50.469 0.0417837 0)
(50.4479 0.0299116 0)
(50.431 0.0203605 0)
(50.4178 0.0129911 0)
(50.4083 0.00772141 0)
(50.4019 0.00455258 0)
(50.398 0.00301662 0)
(50.3959 0.00277764 0)
(50.3957 0.00252981 0)
(50.3969 0.00332541 0)
(50.3991 0.00429369 0)
(50.4024 0.00595077 0)
(50.4058 0.00799212 0)
(50.409 0.00889759 0)
(50.4121 0.00811431 0)
(50.4133 0.00424254 0)
(50.417 -0.00509644 0)
(50.4109 -0.0216 0)
(51.1062 -0.175545 0)
(51.1034 -0.0861024 0)
(51.123 -0.102346 0)
(51.1275 -0.083549 0)
(51.1367 -0.0796219 0)
(51.1425 -0.0726848 0)
(51.1488 -0.0694762 0)
(51.1546 -0.0657388 0)
(51.1606 -0.0628213 0)
(51.1665 -0.0590697 0)
(51.1724 -0.0543366 0)
(51.1779 -0.0474612 0)
(51.1825 -0.0376933 0)
(51.1851 -0.0240331 0)
(51.1843 -0.005772 0)
(51.1783 0.0175556 0)
(51.1648 0.0456613 0)
(51.1417 0.0773743 0)
(51.1071 0.110449 0)
(51.0602 0.141707 0)
(51.0019 0.167566 0)
(50.9346 0.184803 0)
(50.8623 0.191512 0)
(50.7893 0.187621 0)
(50.7199 0.174763 0)
(50.6569 0.155679 0)
(50.6019 0.133376 0)
(50.5553 0.110469 0)
(50.5166 0.0888898 0)
(50.4849 0.0697158 0)
(50.4592 0.0532643 0)
(50.4386 0.0394383 0)
(50.4225 0.027951 0)
(50.4106 0.0188089 0)
(50.4024 0.0118431 0)
(50.3975 0.006994 0)
(50.3954 0.00422614 0)
(50.3954 0.00301901 0)
(50.3968 0.00305542 0)
(50.3994 0.00292357 0)
(50.4031 0.00421882 0)
(50.4073 0.0054609 0)
(50.412 0.00767776 0)
(50.4165 0.00963922 0)
(50.4204 0.0110084 0)
(50.424 0.00928395 0)
(50.4254 0.00277529 0)
(50.4291 -0.0100814 0)
(50.4233 -0.0276652 0)
(51.1054 -0.183191 0)
(51.104 -0.0898998 0)
(51.123 -0.1072 0)
(51.1277 -0.0878292 0)
(51.1368 -0.0836772 0)
(51.1425 -0.0766705 0)
(51.1488 -0.0734467 0)
(51.1545 -0.0698213 0)
(51.1605 -0.0670998 0)
(51.1664 -0.0636603 0)
(51.1724 -0.0593318 0)
(51.1782 -0.0529631 0)
(51.1832 -0.0437781 0)
(51.1866 -0.0307243 0)
(51.187 -0.0129895 0)
(51.1827 0.0100671 0)
(51.1715 0.0384208 0)
(51.1511 0.0712093 0)
(51.1194 0.106487 0)
(51.0752 0.141239 0)
(51.0185 0.17176 0)
(50.9514 0.19436 0)
(50.8775 0.206358 0)
(50.8012 0.206843 0)
(50.7273 0.196824 0)
(50.6595 0.17881 0)
(50.5999 0.155972 0)
(50.5494 0.131315 0)
(50.508 0.10727 0)
(50.4747 0.0854309 0)
(50.4484 0.066499 0)
(50.4279 0.0504865 0)
(50.4125 0.0371039 0)
(50.4015 0.0260052 0)
(50.3947 0.017262 0)
(50.3912 0.0107153 0)
(50.3908 0.00628255 0)
(50.3927 0.00391913 0)
(50.3961 0.00302322 0)
(50.4004 0.00326144 0)
(50.4054 0.00353454 0)
(50.411 0.00509885 0)
(50.4167 0.00695501 0)
(50.4224 0.00939502 0)
(50.4277 0.0122749 0)
(50.432 0.013164 0)
(50.4357 0.00920841 0)
(50.4372 -0.000756609 0)
(50.4406 -0.0141125 0)
(50.4351 -0.0321845 0)
(51.1048 -0.190875 0)
(51.1045 -0.0936155 0)
(51.1229 -0.112079 0)
(51.1278 -0.0921086 0)
(51.1368 -0.0877533 0)
(51.1425 -0.0806792 0)
(51.1488 -0.0774435 0)
(51.1545 -0.0739349 0)
(51.1604 -0.071409 0)
(51.1664 -0.0682822 0)
(51.1725 -0.0643635 0)
(51.1784 -0.0585037 0)
(51.1839 -0.0499191 0)
(51.1879 -0.0375054 0)
(51.1894 -0.0203695 0)
(51.1867 0.00228139 0)
(51.1777 0.0306688 0)
(51.16 0.0642318 0)
(51.1314 0.101352 0)