/*--------------------------------*- C++ -*----------------------------------*\
  =========                 |
  \\      /  F ield         | OpenFOAM: The Open Source CFD Toolbox
   \\    /   O peration     | Website:  https://openfoam.org
    \\  /    A nd           | Version:  dev
     \\/     M anipulation  |
\*---------------------------------------------------------------------------*/
FoamFile
{
    version     2.0;
    format      ascii;
    class       volScalarField;
    location    "50";
    object      yPlus;
}
// * * * * * * * * * * * * * * * * * * * * * * * * * * * * * * * * * * * * * //

dimensions      [0 0 0 0 0 0 0];

internalField   uniform 0;

boundaryField
{
    inlet-l
    {
        type            calculated;
        value           uniform 0;
    }
    airfoil-l1
    {
        type            calculated;
        value           nonuniform List<scalar> 
71
(
190.514
213.644
248.471
281.971
308.313
325.586
335.868
341.108
342.772
341.969
339.344
335.625
330.369
323.943
316.752
309.093
301.192
293.215
285.263
277.438
269.793
262.312
254.976
247.762
240.649
233.621
226.67
219.812
213.128
206.719
200.705
195.191
190.239
185.861
182.081
178.923
176.407
174.489
173.062
172.039
171.325
170.894
170.742
170.717
170.755
170.64
170.34
169.68
168.642
167.199
165.444
163.368
161.046
158.651
156.26
153.957
151.892
150.039
148.406
146.828
145.177
143.221
140.856
138.097
135.105
132.214
129.72
127.825
126.368
125.261
123.628
)
;
    }
    empty-1
    {
        type            empty;
    }
    empty-2
    {
        type            empty;
    }
    wall-l1
    {
        type            calculated;
        value           nonuniform List<scalar> 
104
(
26.6962
26.8218
26.9552
27.0959
27.2207
27.3545
27.5082
27.6661
27.8316
28.007
28.1856
28.3765
28.5799
28.7954
29.0215
29.2557
29.4974
29.7511
30.0209
30.3137
30.6297
30.9632
31.3076
31.6592
32.0158
32.3812
32.7606
33.1578
33.5758
34.0173
34.4824
34.9662
35.4631
35.9715
36.486
37.0089
37.5413
38.0851
38.642
39.2116
39.7957
40.3919
40.9997
41.6192
42.2501
42.8903
43.5416
44.203
44.8776
45.5627
46.2612
46.9753
47.7041
48.4509
49.2151
50.0004
50.8058
51.6348
52.4881
53.3671
54.2726
55.2053
56.1645
57.1525
58.1672
59.2046
60.2668
61.3503
62.4504
63.5632
64.6866
65.8124
66.937
68.0539
69.1564
70.2391
71.2918
72.3103
73.2871
74.2148
75.0868
75.8963
76.6362
77.3036
77.8899
78.3916
78.8039
79.1233
79.3458
79.4722
79.4962
79.4217
79.2432
78.9658
78.5863
78.1105
77.5377
76.8706
76.1153
75.2755
74.3545
73.35
72.3164
71.0476
)
;
    }
    airfoil-l2
    {
        type            calculated;
        value           nonuniform List<scalar> 
104
(
123.64
126.103
127.731
128.776
129.725
130.784
132.014
133.267
134.327
134.902
134.922
134.415
133.555
132.52
131.503
130.659
130.079
129.808
129.756
129.835
129.922
129.923
129.764
129.423
128.92
128.299
127.614
126.925
126.294
125.762
125.355
125.092
124.951
124.886
124.86
124.843
124.799
124.708
124.559
124.348
124.091
123.803
123.498
123.194
122.899
122.613
122.333
122.059
121.785
121.504
121.208
120.895
120.567
120.226
119.871
119.504
119.127
118.75
118.375
118.003
117.632
117.271
116.92
116.569
116.228
115.893
115.562
115.232
114.908
114.592
114.275
113.951
113.63
113.31
112.975
112.647
112.312
111.96
111.602
111.23
110.842
110.429
110.004
109.549
109.059
108.538
107.982
107.378
106.714
106.005
105.231
104.38
103.443
102.409
101.261
99.9783
98.5329
96.8947
95.0222
92.8338
90.2778
87.0699
83.4188
76.6691
)
;
    }
    empty-3
    {
        type            empty;
    }
    empty-4
    {
        type            empty;
    }
    wall-l2
    {
        type            calculated;
        value           nonuniform List<scalar> 
51
(
70.0231
68.7354
67.4429
66.1229
64.7777
63.4136
62.0411
60.669
59.3056
57.9606
56.6423
55.3594
54.1215
52.9357
51.8097
50.7499
49.7613
48.848
48.012
47.2537
46.5714
45.9618
45.4206
44.942
44.5191
44.1448
43.8111
43.5103
43.235
42.9781
42.7338
42.4969
42.2632
42.0297
41.7937
41.5538
41.3092
41.0597
40.806
40.5494
40.2912
40.0337
39.7785
39.523
39.2767
39.0408
38.8132
38.5952
38.3707
38.1652
37.7681
)
;
    }
    outlet-l
    {
        type            calculated;
        value           uniform 0;
    }
    empty-5
    {
        type            empty;
    }
    empty-6
    {
        type            empty;
    }
    outlet-h
    {
        type            calculated;
        value           uniform 0;
    }
    wall-h2
    {
        type            calculated;
        value           nonuniform List<scalar> 
51
(
70.0223
68.7365
67.4458
66.1274
64.7837
63.4209
62.0496
60.6785
59.3159
57.9716
56.6538
55.3712
54.1334
52.9476
51.8215
50.7613
49.7723
48.8585
48.022
47.263
46.58
45.9698
45.4279
44.9485
44.525
44.15
43.8156
43.5141
43.2381
42.9805
42.7354
42.4978
42.2634
42.029
41.7922
41.5515
41.3059
41.0556
40.8009
40.5432
40.2839
40.0251
39.7637
39.5092
39.2627
39.0241
38.7931
38.5707
38.3391
38.1264
37.7039
)
;
    }
    empty-7
    {
        type            empty;
    }
    empty-8
    {
        type            empty;
    }
    airfoil-h2
    {
        type            calculated;
        value           nonuniform List<scalar> 
104
(
122.425
124.864
126.479
127.532
128.49
129.582
130.837
132.116
133.218
133.869
133.957
133.522
132.715
131.735
130.774
130.005
129.511
129.317
129.338
129.479
129.613
129.64
129.505
129.192
128.715
128.109
127.453
126.797
126.201
125.72
125.368
125.144
125.031
125.006
125.013
125.011
124.97
124.876
124.727
124.515
124.263
123.973
123.669
123.363
123.065
122.778
122.497
122.219
121.942
121.653
121.362
121.042
120.71
120.366
120.005
119.634
119.261
118.881
118.495
118.12
117.744
117.386
117.026
116.677
116.336
116.002
115.674
115.347
115.028
114.715
114.395
114.085
113.771
113.455
113.137
112.811
112.487
112.147
111.799
111.436
111.053
110.658
110.241
109.793
109.317
108.812
108.262
107.668
107.023
106.32
105.552
104.707
103.774
102.747
101.603
100.327
98.887
97.2504
95.3722
93.1795
90.6155
87.3923
83.7212
76.9207
)
;
    }
    wall-h1
    {
        type            calculated;
        value           nonuniform List<scalar> 
104
(
26.7282
26.846
26.9771
27.1142
27.2374
27.3684
27.5188
27.6732
27.8341
28.0049
28.1801
28.3666
28.5662
28.777
28.9984
29.2284
29.4672
29.718
29.987
30.279
30.5921
30.923
31.264
31.6122
31.9659
32.3292
32.7059
33.1005
33.5171
33.9561
34.4194
34.901
35.3971
35.9035
36.4164
36.9377
37.4688
38.0118
38.5682
39.1378
39.7229
40.3191
40.9294
41.5499
42.1837
42.8268
43.4811
44.1466
44.8236
45.5136
46.2154
46.9327
47.6663
48.4161
49.1837
49.972
50.7803
51.6118
52.4664
53.3484
54.2543
55.1877
56.1471
57.1351
58.1492
59.1858
60.2467
61.3288
62.4265
63.5382
64.6598
65.7846
66.9064
68.0215
69.1222
70.2033
71.2547
72.2709
73.2478
74.1759
75.0463
75.8547
76.5967
77.2622
77.8504
78.3527
78.766
79.0869
79.3107
79.4387
79.4647
79.3919
79.2154
78.9405
78.563
78.0895
77.518
76.8544
76.1025
75.2629
74.3453
73.3444
72.3104
71.0452
)
;
    }
    empty-9
    {
        type            empty;
    }
    empty-10
    {
        type            empty;
    }
    inlet-h
    {
        type            calculated;
        value           uniform 0;
    }
    airfoil-h1
    {
        type            calculated;
        value           nonuniform List<scalar> 
71
(
188.542
208.615
242.753
276.909
305.056
324.333
336.399
343.093
345.848
345.833
343.754
340.287
335.347
329.008
321.737
313.889
305.723
297.443
289.156
280.989
272.983
265.119
257.391
249.769
242.211
234.727
227.306
219.987
212.826
205.938
199.462
193.517
188.168
183.428
179.318
175.837
173.013
170.831
169.188
167.99
167.174
166.694
166.522
166.56
166.725
166.782
166.65
166.195
165.371
164.161
162.543
160.645
158.493
156.225
153.936
151.728
149.735
147.972
146.39
144.905
143.321
141.455
139.172
136.48
133.545
130.67
128.22
126.357
124.97
123.953
122.398
)
;
    }
    empty-11
    {
        type            empty;
    }
    empty-12
    {
        type            empty;
    }
}


// ************************************************************************* //
