/*--------------------------------*- C++ -*----------------------------------*\
  =========                 |
  \\      /  F ield         | OpenFOAM: The Open Source CFD Toolbox
   \\    /   O peration     | Website:  https://openfoam.org
    \\  /    A nd           | Version:  dev
     \\/     M anipulation  |
\*---------------------------------------------------------------------------*/
FoamFile
{
    version     2.0;
    format      ascii;
    class       volScalarField;
    location    "200";
    object      nut;
}
// * * * * * * * * * * * * * * * * * * * * * * * * * * * * * * * * * * * * * //

dimensions      [0 2 -1 0 0 0 0];

internalField   nonuniform List<scalar> 
29380
(
7.62763e-06
7.40521e-06
8.8732e-06
8.48257e-06
1.06865e-05
8.64472e-06
1.02269e-05
1.17849e-05
1.06223e-05
8.93619e-06
1.19594e-05
1.1322e-05
1.21966e-05
1.08907e-05
9.372e-06
1.25686e-05
9.61842e-06
1.21282e-05
1.20606e-05
1.15121e-05
9.62921e-06
1.14929e-05
7.7791e-06
1.03755e-05
1.15911e-05
1.22632e-05
1.18382e-05
9.83285e-06
9.34616e-06
6.79055e-06
8.04892e-06
9.77616e-06
1.11664e-05
1.23182e-05
1.20665e-05
9.95519e-06
7.32575e-06
7.04743e-06
6.43279e-06
7.75122e-06
8.96251e-06
1.09039e-05
1.23035e-05
1.22305e-05
1.00045e-05
6.25198e-06
8.48435e-06
6.12923e-06
6.55891e-06
6.99107e-06
8.56707e-06
1.06465e-05
1.23355e-05
1.23094e-05
9.96126e-06
6.38033e-06
1.04043e-05
7.2652e-06
6.62665e-06
6.16054e-06
6.68369e-06
8.24273e-06
1.05231e-05
1.23661e-05
1.22966e-05
9.81948e-06
7.68404e-06
1.14882e-05
9.56089e-06
7.96697e-06
6.76736e-06
6.05369e-06
6.468e-06
8.0553e-06
1.04875e-05
1.24157e-05
1.22063e-05
9.62777e-06
9.77689e-06
1.09517e-05
1.18265e-05
1.00707e-05
8.76141e-06
6.90816e-06
6.02979e-06
6.32295e-06
7.9847e-06
1.05657e-05
1.2514e-05
1.21285e-05
9.39983e-06
1.16694e-05
9.42659e-06
1.24632e-05
1.16753e-05
1.1325e-05
9.13881e-06
7.11551e-06
5.98802e-06
6.2591e-06
8.04445e-06
1.07809e-05
1.27088e-05
1.21202e-05
9.11343e-06
1.226e-05
8.14551e-06
1.11538e-05
1.16471e-05
1.27206e-05
1.17601e-05
9.54464e-06
7.21863e-06
5.95782e-06
6.27759e-06
8.23527e-06
1.11111e-05
1.30842e-05
1.20733e-05
8.80806e-06
1.12941e-05
7.84225e-06
9.12209e-06
1.01971e-05
1.18591e-05
1.29387e-05
1.21406e-05
9.79317e-06
7.24401e-06
5.93487e-06
6.35822e-06
8.49164e-06
1.16202e-05
1.35286e-05
1.1937e-05
8.50637e-06
9.51021e-06
8.54327e-06
7.69135e-06
8.52675e-06
9.56485e-06
1.17792e-05
1.3006e-05
1.24031e-05
9.88453e-06
7.1868e-06
5.89075e-06
6.43617e-06
8.81385e-06
1.22776e-05
1.38899e-05
1.17547e-05
8.18622e-06
7.8933e-06
9.64145e-06
7.38476e-06
7.60705e-06
7.49329e-06
9.34238e-06
1.15031e-05
1.30856e-05
1.25164e-05
9.81805e-06
7.02811e-06
5.79389e-06
6.45237e-06
9.26096e-06
1.29317e-05
1.41783e-05
1.15375e-05
7.86519e-06
7.04169e-06
1.01477e-05
8.06649e-06
7.71847e-06
6.61388e-06
7.29743e-06
8.95364e-06
1.13546e-05
1.31363e-05
1.24857e-05
9.60775e-06
6.79161e-06
5.55648e-06
6.5086e-06
9.77315e-06
1.35388e-05
1.44674e-05
1.12345e-05
7.52013e-06
7.12967e-06
9.58741e-06
9.14071e-06
8.60616e-06
7.09873e-06
6.50482e-06
7.01731e-06
8.70979e-06
1.13083e-05
1.31599e-05
1.23664e-05
9.33486e-06
6.39076e-06
5.2842e-06
6.64546e-06
1.02853e-05
1.42005e-05
1.46439e-05
1.08457e-05
7.17715e-06
8.08141e-06
8.52458e-06
9.80957e-06
9.60676e-06
8.66508e-06
7.06594e-06
6.42548e-06
6.82333e-06
8.6103e-06
1.13562e-05
1.32181e-05
1.22535e-05
8.96852e-06
5.88881e-06
5.08757e-06
6.81749e-06
1.08588e-05
1.48347e-05
1.47364e-05
1.03957e-05
6.83245e-06
9.54609e-06
7.88403e-06
9.72314e-06
1.00186e-05
1.04459e-05
8.66825e-06
7.21203e-06
6.35604e-06
6.73121e-06
8.64611e-06
1.1515e-05
1.3356e-05
1.22482e-05
8.44844e-06
5.43897e-06
4.95811e-06
7.01251e-06
1.1499e-05
1.54803e-05
1.47144e-05
9.88041e-06
6.46354e-06
1.08206e-05
8.18209e-06
9.25257e-06
9.70733e-06
1.127e-05
1.04461e-05
8.99911e-06
7.30643e-06
6.30892e-06
6.74418e-06
8.77751e-06
1.17613e-05
1.37873e-05
1.21553e-05
7.89019e-06
5.08833e-06
4.82323e-06
7.28679e-06
1.22379e-05
1.60545e-05
1.45876e-05
9.29919e-06
6.06708e-06
1.11632e-05
9.31946e-06
8.98139e-06
9.143e-06
1.07203e-05
1.12803e-05
1.07956e-05
9.25036e-06
7.332e-06
6.30432e-06
6.7959e-06
8.94794e-06
1.22774e-05
1.43339e-05
1.1909e-05
7.41616e-06
4.72283e-06
4.73725e-06
7.65598e-06
1.30008e-05
1.65991e-05
1.44011e-05
8.61093e-06
5.67369e-06
1.03966e-05
1.05214e-05
9.15763e-06
8.84994e-06
9.45942e-06
1.07864e-05
1.14398e-05
1.10849e-05
9.36252e-06
7.31647e-06
6.28675e-06
6.83646e-06
9.19905e-06
1.30398e-05
1.47428e-05
1.16366e-05
6.9113e-06
4.37394e-06
4.70369e-06
8.09801e-06
1.38409e-05
1.72007e-05
1.40649e-05
7.88771e-06
5.30449e-06
9.06987e-06
1.07566e-05
9.55038e-06
8.99264e-06
8.40801e-06
9.58124e-06
1.06832e-05
1.15896e-05
1.12452e-05
9.34226e-06
7.2559e-06
6.23275e-06
6.78192e-06
9.63775e-06
1.37992e-05
1.49965e-05
1.13356e-05
6.35508e-06
4.05034e-06
4.74383e-06
8.63277e-06
1.48401e-05
1.78078e-05
1.36323e-05
7.21379e-06
4.97826e-06
7.96735e-06
9.78795e-06
9.66669e-06
9.33369e-06
8.04266e-06
8.52323e-06
9.30544e-06
1.06121e-05
1.17137e-05
1.12285e-05
9.27359e-06
7.16081e-06
5.99557e-06
6.77552e-06
1.01717e-05
1.43727e-05
1.52982e-05
1.09035e-05
5.77185e-06
3.80831e-06
4.83034e-06
9.29073e-06
1.60666e-05
1.83973e-05
1.32024e-05
6.6167e-06
4.67874e-06
7.59414e-06
8.42668e-06
9.24727e-06
9.46327e-06
8.34001e-06
8.07314e-06
8.21937e-06
9.07418e-06
1.0638e-05
1.17132e-05
1.11816e-05
9.19925e-06
6.88773e-06
5.68873e-06
6.8782e-06
1.05938e-05
1.50649e-05
1.55492e-05
1.03428e-05
5.2652e-06
3.58718e-06
4.94515e-06
1.02036e-05
1.74388e-05
1.89718e-05
1.27801e-05
6.05817e-06
4.38484e-06
8.05878e-06
7.62552e-06
8.56782e-06
9.19253e-06
8.95186e-06
8.24067e-06
7.8616e-06
7.94902e-06
8.99991e-06
1.06657e-05
1.16917e-05
1.11611e-05
9.07832e-06
6.45506e-06
5.46959e-06
6.97514e-06
1.11059e-05
1.59069e-05
1.56831e-05
9.75031e-06
4.75953e-06
3.35071e-06
5.18033e-06
1.12914e-05
1.88389e-05
1.94706e-05
1.23262e-05
5.50115e-06
4.11042e-06
9.09649e-06
7.81193e-06
8.16087e-06
8.74289e-06
9.4355e-06
8.75572e-06
8.20568e-06
7.6641e-06
7.81043e-06
9.05258e-06
1.06647e-05
1.16925e-05
1.1303e-05
8.7858e-06
6.05372e-06
5.33868e-06
7.08438e-06
1.18366e-05
1.68077e-05
1.56309e-05
9.09813e-06
4.21538e-06
3.14116e-06
5.48535e-06
1.24243e-05
2.01724e-05
1.98922e-05
1.18159e-05
4.95531e-06
3.8975e-06
1.00863e-05
8.84825e-06
8.36747e-06
8.5111e-06
9.55473e-06
9.25926e-06
8.92671e-06
8.17107e-06
7.50666e-06
7.86556e-06
9.07943e-06
1.06494e-05
1.19536e-05
1.14182e-05
8.42121e-06
5.81069e-06
5.16707e-06
7.31464e-06
1.27411e-05
1.75164e-05
1.55098e-05
8.35476e-06
3.62863e-06
2.94829e-06
5.80203e-06
1.35525e-05
2.15e-05
2.02828e-05
1.1226e-05
4.47468e-06
3.77755e-06
1.03817e-05
1.00537e-05
9.12275e-06
8.72454e-06
9.40325e-06
9.516e-06
9.56749e-06
9.0978e-06
8.05065e-06
7.52948e-06
7.92669e-06
9.06413e-06
1.07936e-05
1.2382e-05
1.13996e-05
8.21724e-06
5.49308e-06
4.99766e-06
7.67596e-06
1.35742e-05
1.82691e-05
1.53356e-05
7.3825e-06
3.06432e-06
2.77642e-06
6.13889e-06
1.47604e-05
2.29487e-05
2.05732e-05
1.05653e-05
4.09154e-06
3.75727e-06
9.86006e-06
1.05373e-05
9.93661e-06
9.27564e-06
9.22195e-06
9.51987e-06
9.80022e-06
9.88302e-06
9.08264e-06
8.00434e-06
7.61249e-06
7.95307e-06
9.02397e-06
1.11567e-05
1.27322e-05
1.1427e-05
7.92808e-06
5.06674e-06
4.88072e-06
8.06716e-06
1.45156e-05
1.91538e-05
1.48002e-05
6.367e-06
2.58648e-06
2.64741e-06
6.54496e-06
1.61664e-05
2.44737e-05
2.05899e-05
9.84364e-06
3.83491e-06
3.77883e-06
8.99292e-06
1.00037e-05
1.01876e-05
9.76486e-06
9.15599e-06
9.40233e-06
9.61726e-06
1.0095e-05
1.00147e-05
8.95658e-06
8.06804e-06
7.70045e-06
7.82542e-06
9.09948e-06
1.15386e-05
1.29606e-05
1.14439e-05
7.41176e-06
4.62667e-06
4.8466e-06
8.51221e-06
1.56602e-05
1.99831e-05
1.41059e-05
5.47065e-06
2.2109e-06
2.56194e-06
7.05458e-06
1.77962e-05
2.57844e-05
2.02083e-05
9.14746e-06
3.66518e-06
3.73457e-06
8.37041e-06
9.00002e-06
9.6906e-06
9.79408e-06
9.17452e-06
9.27658e-06
9.25238e-06
9.72419e-06
1.0332e-05
9.86394e-06
8.94052e-06
8.18758e-06
7.61538e-06
7.66614e-06
9.24378e-06
1.17155e-05
1.33066e-05
1.12599e-05
6.76808e-06
4.31671e-06
4.80697e-06
9.05067e-06
1.71318e-05
2.08137e-05
1.34085e-05
4.71374e-06
1.901e-06
2.49531e-06
7.71251e-06
1.94814e-05
2.66568e-05
1.947e-05
8.5409e-06
3.41371e-06
3.66192e-06
8.29808e-06
8.27605e-06
8.86947e-06
9.33497e-06
9.15765e-06
9.17106e-06
8.95777e-06
9.11374e-06
9.94712e-06
1.02621e-05
9.7401e-06
9.00667e-06
8.22644e-06
7.38965e-06
7.57056e-06
9.2309e-06
1.20538e-05
1.37162e-05
1.086e-05
6.2578e-06
3.98811e-06
4.75866e-06
9.93804e-06
1.88282e-05
2.15755e-05
1.26875e-05
4.02353e-06
1.60816e-06
2.46365e-06
8.53999e-06
2.10952e-05
2.69709e-05
1.85966e-05
7.84478e-06
2.97133e-06
3.8275e-06
8.7199e-06
8.21136e-06
8.31443e-06
8.74649e-06
9.04313e-06
9.06701e-06
8.85821e-06
8.65018e-06
9.20239e-06
1.00261e-05
1.00878e-05
9.67029e-06
9.14411e-06
8.10785e-06
7.18773e-06
7.43231e-06
9.31231e-06
1.26927e-05
1.40419e-05
1.04675e-05
5.72363e-06
3.62566e-06
4.88409e-06
1.10242e-05
2.05106e-05
2.21357e-05
1.18521e-05
3.32479e-06
1.34218e-06
2.52546e-06
9.57146e-06
2.24745e-05
2.69307e-05
1.76725e-05
6.66371e-06
2.53656e-06
4.53157e-06
9.30346e-06
8.7263e-06
8.33847e-06
8.43937e-06
8.8959e-06
8.9652e-06
8.93593e-06
8.54279e-06
8.55676e-06
9.39473e-06
9.91538e-06
9.8957e-06
9.77656e-06
9.22488e-06
7.96274e-06
7.05351e-06
7.28765e-06
9.69084e-06
1.3485e-05
1.42132e-05
1.00635e-05
5.13895e-06
3.32597e-06
5.06864e-06
1.21286e-05
2.20346e-05
2.24617e-05
1.08352e-05
2.63633e-06
1.15855e-06
2.72946e-06
1.07657e-05
2.36793e-05
2.70297e-05
1.60141e-05
5.01671e-06
2.4189e-06
5.7958e-06
9.64896e-06
9.3997e-06
8.86194e-06
8.59029e-06
8.84276e-06
8.908e-06
9.08853e-06
8.77916e-06
8.31063e-06
8.7498e-06
9.42401e-06
9.72303e-06
9.85934e-06
9.97566e-06
9.25988e-06
7.95466e-06
6.82701e-06
7.28124e-06
1.03135e-05
1.40904e-05
1.44563e-05
9.60963e-06
4.49028e-06
3.04335e-06
5.26301e-06
1.32057e-05
2.34801e-05
2.26518e-05
9.59729e-06
2.07295e-06
1.07017e-06
3.09935e-06
1.21171e-05
2.52918e-05
2.69277e-05
1.27488e-05
3.53383e-06
2.73672e-06
7.1695e-06
9.57895e-06
9.7443e-06
9.48875e-06
9.06914e-06
8.95234e-06
8.94201e-06
9.20757e-06
9.17368e-06
8.52361e-06
8.39032e-06
8.89872e-06
9.36425e-06
9.56553e-06
9.99224e-06
1.01571e-05
9.42807e-06
7.81055e-06
6.54767e-06
7.45301e-06
1.08333e-05
1.48215e-05
1.47612e-05
8.85237e-06
3.84979e-06
2.80853e-06
5.49114e-06
1.43662e-05
2.51318e-05
2.25877e-05
8.2603e-06
1.65826e-06
1.07512e-06
3.64166e-06
1.39444e-05
2.77705e-05
2.48491e-05
8.52923e-06
2.71197e-06
3.44209e-06
8.18075e-06
9.2398e-06
9.58619e-06
9.76813e-06
9.52829e-06
9.1685e-06
9.06574e-06
9.23908e-06
9.47466e-06
9.03504e-06
8.43617e-06
8.56324e-06
9.01063e-06
9.21373e-06
9.52954e-06
1.01468e-05
1.03869e-05
9.50636e-06
7.43714e-06
6.32891e-06
7.62755e-06
1.14191e-05
1.57107e-05
1.47202e-05
8.02095e-06
3.32311e-06
2.64615e-06
5.80408e-06
1.58491e-05
2.70077e-05
2.19771e-05
6.91072e-06
1.38621e-06
1.15457e-06
4.41584e-06
1.70727e-05
3.01447e-05
1.96697e-05
5.3097e-06
2.64297e-06
4.52462e-06
8.8525e-06
8.91551e-06
9.15741e-06
9.5572e-06
9.6497e-06
9.34405e-06
9.21288e-06
9.19711e-06
9.5168e-06
9.53483e-06
8.82087e-06
8.52616e-06
8.76851e-06
8.98632e-06
9.06104e-06
9.52793e-06
1.0244e-05
1.06515e-05
9.2969e-06
6.97526e-06
6.20252e-06
7.77853e-06
1.21101e-05
1.65549e-05
1.45874e-05
7.29009e-06
2.92451e-06
2.54646e-06
6.2649e-06
1.78092e-05
2.85802e-05
2.066e-05
5.66877e-06
1.20573e-06
1.26664e-06
5.90033e-06
2.22095e-05
3.01481e-05
1.36357e-05
4.00502e-06
3.40997e-06
6.19595e-06
1.33449e-05
8.79818e-06
8.81375e-06
9.10219e-06
9.3982e-06
9.35507e-06
9.29109e-06
9.13238e-06
9.32189e-06
9.72988e-06
9.32001e-06
8.77218e-06
8.68709e-06
8.88838e-06
8.852e-06
8.92253e-06
9.41873e-06
1.04775e-05
1.0782e-05
8.85871e-06
6.65903e-06
6.01407e-06
7.93341e-06
1.3011e-05
1.74413e-05
1.44302e-05
6.67409e-06
2.6002e-06
2.47226e-06
6.98532e-06
1.99803e-05
2.94721e-05
1.87073e-05
4.54285e-06
1.01871e-06
1.50699e-06
9.33236e-06
2.85404e-05
2.6966e-05
9.91957e-06
4.37296e-06
5.26423e-06
7.51121e-06
0.000418913
8.89811e-06
8.75327e-06
8.76034e-06
9.01405e-06
9.2029e-06
9.2503e-06
9.08878e-06
9.05617e-06
9.54221e-06
9.64725e-06
9.16596e-06
8.78212e-06
8.85926e-06
8.87821e-06
8.69704e-06
8.69737e-06
9.45261e-06
1.08218e-05
1.06924e-05
8.5294e-06
6.28764e-06
5.78592e-06
8.31784e-06
1.40131e-05
1.82215e-05
1.42236e-05
6.08836e-06
2.26106e-06
2.45237e-06
8.00221e-06
2.217e-05
2.94513e-05
1.62514e-05
3.3761e-06
8.2607e-07
2.35005e-06
1.60413e-05
3.31733e-05
2.26082e-05
8.93255e-06
6.10722e-06
8.53775e-06
6.61044e-06
0.00226828
9.09213e-06
8.93863e-06
8.72531e-06
8.77557e-06
9.0073e-06
9.1219e-06
9.07868e-06
8.89454e-06
9.14882e-06
9.62844e-06
9.49344e-06
9.0203e-06
8.87803e-06
8.97378e-06
8.82925e-06
8.51327e-06
8.5399e-06
9.73252e-06
1.11225e-05
1.05872e-05
8.18533e-06
5.87489e-06
5.71074e-06
8.75087e-06
1.49021e-05
1.88315e-05
1.39134e-05
5.37526e-06
1.91709e-06
2.56694e-06
9.38516e-06
2.41505e-05
2.85019e-05
1.32819e-05
2.12425e-06
7.80016e-07
4.84566e-06
2.44458e-05
3.31158e-05
1.86748e-05
9.29159e-06
8.88806e-06
2.3796e-05
0.00100775
0.00443115
9.22983e-06
9.18284e-06
8.94833e-06
8.80567e-06
8.9039e-06
8.99359e-06
9.08682e-06
8.91142e-06
8.82243e-06
9.32278e-06
9.57336e-06
9.29718e-06
8.97084e-06
9.02047e-06
9.06728e-06
8.8104e-06
8.28898e-06
8.59853e-06
1.01476e-05
1.13022e-05
1.05352e-05
7.81498e-06
5.52285e-06
5.64507e-06
9.11329e-06
1.5639e-05
1.93289e-05
1.33751e-05
4.50425e-06
1.67866e-06
2.89132e-06
1.11432e-05
2.58575e-05
2.68398e-05
9.42438e-06
1.09658e-06
1.04519e-06
9.5295e-06
2.8885e-05
2.76646e-05
1.46704e-05
9.77904e-06
1.07917e-05
0.000543061
0.00342123
0.00596758
9.2442e-06
9.30148e-06
9.22256e-06
9.02951e-06
8.95027e-06
8.94466e-06
9.09163e-06
9.05694e-06
8.7421e-06
8.96017e-06
9.38201e-06
9.46531e-06
9.14151e-06
9.0313e-06
9.18005e-06
9.22466e-06
8.66961e-06
8.1421e-06
8.8541e-06
1.04319e-05
1.15754e-05
1.0497e-05
7.36905e-06
5.18556e-06
5.57798e-06
9.40439e-06
1.63491e-05
1.98471e-05
1.24228e-05
3.69969e-06
1.58384e-06
3.49436e-06
1.3342e-05
2.76777e-05
2.37185e-05
4.92863e-06
5.41168e-07
1.73288e-06
1.36229e-05
2.56975e-05
1.88754e-05
1.03268e-05
9.57726e-06
0.000183662
0.00266411
0.00526732
0.00709607
9.17059e-06
9.24829e-06
9.34484e-06
9.25851e-06
9.09695e-06
8.99752e-06
9.08509e-06
9.20802e-06
8.91018e-06
8.76395e-06
9.06787e-06
9.42641e-06
9.31919e-06
9.08137e-06
9.13515e-06
9.39729e-06
9.25927e-06
8.43796e-06
8.14235e-06
9.0455e-06
1.07783e-05
1.18961e-05
1.02678e-05
6.95106e-06
4.92201e-06
5.51193e-06
9.70885e-06
1.73378e-05
2.0229e-05
1.11391e-05
3.05471e-06
1.64574e-06
4.48899e-06
1.63589e-05
2.95205e-05
1.73348e-05
1.63688e-06
3.39193e-07
2.77305e-06
1.39317e-05
1.75431e-05
1.00846e-05
5.98578e-06
3.28545e-05
0.00178116
0.00476794
0.00662026
0.00789139
9.08755e-06
9.11501e-06
9.26825e-06
9.33253e-06
9.23333e-06
9.10919e-06
9.07676e-06
9.26055e-06
9.17935e-06
8.81902e-06
8.83574e-06
9.21256e-06
9.39093e-06
9.19202e-06
9.06091e-06
9.26149e-06
9.57083e-06
9.10057e-06
8.23489e-06
8.16864e-06
9.23309e-06
1.11588e-05
1.20481e-05
1.00763e-05
6.66494e-06
4.71067e-06
5.45716e-06
1.02474e-05
1.8684e-05
2.00924e-05
9.61373e-06
2.60099e-06
1.88613e-06
6.11106e-06
2.08688e-05
2.94964e-05
8.85657e-06
4.19149e-07
3.79655e-07
4.01219e-06
1.14163e-05
9.12679e-06
3.72289e-06
2.91766e-06
0.000989947
0.0041437
0.00626748
0.00759725
0.00841183
9.05144e-06
9.01625e-06
9.1041e-06
9.23498e-06
9.26849e-06
9.20575e-06
9.08113e-06
9.1977e-06
9.36078e-06
9.04835e-06
8.81028e-06
8.96755e-06
9.29804e-06
9.29341e-06
9.07473e-06
9.02759e-06
9.44196e-06
9.58007e-06
8.84284e-06
8.12633e-06
8.1479e-06
9.4222e-06
1.14877e-05
1.22253e-05
1.00161e-05
6.4629e-06
4.50041e-06
5.47618e-06
1.12035e-05
1.99358e-05
1.91767e-05
8.01532e-06
2.31696e-06
2.33361e-06
9.08187e-06
2.71948e-05
2.52579e-05
3.29217e-06
2.31725e-07
9.14999e-07
5.63599e-06
8.18882e-06
3.21345e-06
4.79737e-07
0.000410779
0.00341192
0.00582725
0.00736386
0.00826373
0.00870742
9.06018e-06
9.01369e-06
8.98696e-06
9.07751e-06
9.19583e-06
9.23129e-06
9.1028e-06
9.08608e-06
9.35291e-06
9.2808e-06
8.97495e-06
8.84145e-06
9.09877e-06
9.29225e-06
9.17127e-06
8.92758e-06
9.10208e-06
9.58255e-06
9.4351e-06
8.68705e-06
7.96907e-06
8.11788e-06
9.66093e-06
1.17834e-05
1.24406e-05
1.00498e-05
6.2407e-06
4.24484e-06
5.69229e-06
1.2413e-05
2.07301e-05
1.74599e-05
6.46298e-06
2.11168e-06
3.24734e-06
1.51027e-05
3.40208e-05
1.84339e-05
1.70205e-06
6.16928e-07
3.01164e-06
8.0754e-06
5.12005e-06
4.23453e-07
7.43944e-05
0.00254901
0.00532955
0.00706858
0.00812742
0.00867485
0.0088213
9.08937e-06
9.07209e-06
8.98963e-06
8.97645e-06
9.08501e-06
9.1839e-06
9.12978e-06
9.01126e-06
9.20039e-06
9.36915e-06
9.20036e-06
8.89447e-06
8.92595e-06
9.17105e-06
9.24811e-06
9.02153e-06
8.8738e-06
9.25832e-06
9.618e-06
9.33281e-06
8.51185e-06
7.81501e-06
8.18438e-06
9.81109e-06
1.1984e-05
1.27244e-05
1.00739e-05
5.84491e-06
4.01034e-06
6.14717e-06
1.37624e-05
2.08128e-05
1.5061e-05
4.91781e-06
2.01466e-06
5.63296e-06
2.56154e-05
3.8302e-05
1.38341e-05
2.43015e-06
2.98233e-06
9.25555e-06
1.1819e-05
2.46899e-06
3.06363e-07
0.00164074
0.00476337
0.00672666
0.0079501
0.00861606
0.00887864
0.00879043
9.1128e-06
9.12858e-06
9.06762e-06
8.9899e-06
9.0101e-06
9.10753e-06
9.14482e-06
9.01464e-06
9.03227e-06
9.28831e-06
9.33561e-06
9.07077e-06
8.88611e-06
9.01247e-06
9.21917e-06
9.19202e-06
8.8984e-06
8.9518e-06
9.40878e-06
9.61771e-06
9.24751e-06
8.35364e-06
7.75911e-06
8.16441e-06
9.79849e-06
1.21895e-05
1.3077e-05
9.8646e-06
5.27941e-06
3.92924e-06
6.91514e-06
1.51071e-05
2.00441e-05
1.21062e-05
3.41122e-06
2.30331e-06
1.12682e-05
3.74112e-05
3.74817e-05
1.28122e-05
5.92357e-06
1.15415e-05
2.36666e-05
1.72998e-05
5.24092e-07
0.000872905
0.00411345
0.00633009
0.00773422
0.00853368
0.00888048
0.00891663
0.00864637
9.1201e-06
9.15558e-06
9.14178e-06
9.07094e-06
9.01297e-06
9.0499e-06
9.13724e-06
9.07551e-06
8.95735e-06
9.12869e-06
9.31353e-06
9.24425e-06
8.989e-06
8.9288e-06
9.10056e-06
9.27496e-06
9.08852e-06
8.87491e-06
9.09987e-06
9.48182e-06
9.65205e-06
9.17451e-06
8.25764e-06
7.67786e-06
8.00912e-06
9.72975e-06
1.25153e-05
1.33886e-05
9.27878e-06
4.77754e-06
4.10116e-06
8.03892e-06
1.62841e-05
1.84708e-05
8.58797e-06
2.17224e-06
3.33063e-06
1.95148e-05
4.2091e-05
3.09608e-05
1.32454e-05
1.34804e-05
3.09313e-05
4.88168e-05
2.13152e-05
0.000396205
0.00334857
0.00587397
0.00747498
0.00841988
0.00887306
0.00896494
0.00882442
0.00841607
9.1131e-06
9.13475e-06
9.17802e-06
9.14459e-06
9.06624e-06
9.04059e-06
9.113e-06
9.13613e-06
8.99531e-06
9.01123e-06
9.18294e-06
9.30887e-06
9.15062e-06
8.97197e-06
8.98968e-06
9.20827e-06
9.25019e-06
9.00344e-06
8.93894e-06
9.18255e-06
9.5805e-06
9.67439e-06
9.1018e-06
8.22954e-06
7.5474e-06
7.76716e-06
9.74525e-06
1.30555e-05
1.34436e-05
8.51595e-06
4.47016e-06
4.59327e-06
9.52247e-06
1.73135e-05
1.57526e-05
4.77152e-06
1.38277e-06
5.02638e-06
2.4242e-05
3.47654e-05
2.05411e-05
1.29948e-05
2.46546e-05
5.98492e-05
7.90743e-05
0.000170959
0.00247848
0.00535575
0.00716829
0.00827254
0.00884053
0.00901547
0.00890761
0.00863242
0.0081227
9.10587e-06
9.09594e-06
9.15011e-06
9.1828e-06
9.12278e-06
9.06684e-06
9.08857e-06
9.1564e-06
9.08599e-06
8.99456e-06
9.05523e-06
9.24731e-06
9.25922e-06
9.10024e-06
8.97251e-06
9.06847e-06
9.25812e-06
9.16921e-06
8.9715e-06
8.98381e-06
9.26985e-06
9.64494e-06
9.63707e-06
9.1663e-06
8.26675e-06
7.32498e-06
7.52886e-06
1.00285e-05
1.37229e-05
1.31453e-05
7.70893e-06
4.41723e-06
5.4642e-06
1.1468e-05
1.79855e-05
1.11562e-05
1.88256e-06
9.99803e-07
6.44962e-06
2.09905e-05
1.98573e-05
9.88946e-06
1.09244e-05
3.72494e-05
9.20464e-05
0.000130614
0.00162477
0.00477472
0.00681102
0.00808751
0.00878306
0.00904629
0.00900197
0.00874123
0.00836663
0.0077864
9.10387e-06
9.07533e-06
9.09661e-06
9.15782e-06
9.16025e-06
9.1041e-06
9.07799e-06
9.13097e-06
9.15411e-06
9.05524e-06
9.00867e-06
9.13071e-06
9.25573e-06
9.21592e-06
9.0557e-06
8.97856e-06
9.14293e-06
9.22694e-06
9.08747e-06
8.9676e-06
9.01861e-06
9.32604e-06
9.62197e-06
9.71585e-06
9.39101e-06
8.24545e-06
7.01834e-06
7.44755e-06
1.06387e-05
1.42206e-05
1.24089e-05
6.97285e-06
4.64896e-06
6.81661e-06
1.40779e-05
1.73316e-05
5.80289e-06
6.53105e-07
1.01569e-06
6.75904e-06
1.24921e-05
6.37987e-06
2.47012e-06
7.5094e-06
5.27096e-05
0.000120322
0.000950652
0.00411738
0.00640034
0.00786152
0.00869648
0.00905952
0.00908102
0.00886796
0.00849383
0.00804955
0.00742496
9.10446e-06
9.08212e-06
9.06537e-06
9.10542e-06
9.15411e-06
9.13513e-06
9.08846e-06
9.09328e-06
9.1564e-06
9.12636e-06
9.04832e-06
9.04542e-06
9.17026e-06
9.24169e-06
9.16886e-06
9.00119e-06
9.02628e-06
9.16391e-06
9.15832e-06
9.05414e-06
8.95164e-06
9.05192e-06
9.31129e-06
9.6076e-06
9.95608e-06
9.64553e-06
8.07929e-06
6.70534e-06
7.63148e-06
1.13501e-05
1.42715e-05
1.12898e-05
6.40781e-06
5.16512e-06
8.98474e-06
1.74675e-05
1.46174e-05
2.49547e-06
4.48072e-07
1.65636e-06
5.96633e-06
4.42358e-06
5.52044e-07
2.10122e-07
8.6123e-06
6.61755e-05
0.000500123
0.00335768
0.00593476
0.00759143
0.00857773
0.00905119
0.00914861
0.00898283
0.00864383
0.00818955
0.00770087
0.00705445
9.10412e-06
9.10214e-06
9.07094e-06
9.0703e-06
9.12117e-06
9.14252e-06
9.10878e-06
9.07832e-06
9.11668e-06
9.1503e-06
9.12024e-06
9.03659e-06
9.07875e-06
9.17801e-06
9.22587e-06
9.10197e-06
9.00059e-06
9.0708e-06
9.14441e-06
9.12522e-06
9.0137e-06
8.96867e-06
9.06414e-06
9.19254e-06
9.65556e-06
1.0316e-05
9.79262e-06
7.7345e-06
6.49507e-06
8.01316e-06
1.19641e-05
1.37373e-05
9.99478e-06
5.99267e-06
6.13095e-06
1.28003e-05
2.1141e-05
1.1264e-05
1.67949e-06
1.01003e-06
3.36949e-06
4.49986e-06
5.46009e-07
1.78322e-10
6.97669e-09
1.01951e-05
0.000205595
0.00250397
0.00541429
0.00727545
0.00842359
0.00901861
0.00920108
0.00909114
0.00878455
0.00835576
0.00784947
0.00733825
0.00668975
9.10252e-06
9.11636e-06
9.09704e-06
9.06863e-06
9.09095e-06
9.12839e-06
9.12958e-06
9.08634e-06
9.07978e-06
9.12691e-06
9.16085e-06
9.0844e-06
9.04421e-06
9.08666e-06
9.19428e-06
9.19323e-06
9.06535e-06
9.03622e-06
9.09553e-06
9.13079e-06
9.0886e-06
9.01851e-06
9.0225e-06
8.93133e-06
9.0123e-06
9.84239e-06
1.07013e-05
9.68685e-06
7.28349e-06
6.45664e-06
8.57122e-06
1.23033e-05
1.26985e-05
8.64656e-06
5.74528e-06
8.15265e-06
1.88219e-05
2.37651e-05
9.70831e-06
2.83181e-06
3.75123e-06
7.11366e-06
2.99705e-06
2.44693e-09
4.16571e-12
7.34685e-09
4.11216e-05
0.00162901
0.00482946
0.00691187
0.00823156
0.00895871
0.00923627
0.00918964
0.00892246
0.00851452
0.00802651
0.00749235
0.00697791
0.00634503
9.10165e-06
9.11633e-06
9.1187e-06
9.08918e-06
9.07915e-06
9.10772e-06
9.13552e-06
9.11672e-06
9.06714e-06
9.08739e-06
9.15166e-06
9.1393e-06
9.07093e-06
9.03887e-06
9.11074e-06
9.20919e-06
9.15107e-06
9.07495e-06
9.07603e-06
9.1024e-06
9.11375e-06
9.07624e-06
9.09598e-06
8.98449e-06
8.66036e-06
8.9148e-06
1.01687e-05
1.09541e-05
9.2984e-06
6.90878e-06
6.67978e-06
9.24051e-06
1.22547e-05
1.13307e-05
7.25136e-06
5.8658e-06
1.17917e-05
2.50668e-05
2.40282e-05
1.07582e-05
7.38705e-06
1.2721e-05
1.54265e-05
2.85379e-06
1.23704e-11
1.97728e-13
3.23843e-06
0.000852292
0.00414999
0.00649515
0.00799907
0.00886861
0.00925143
0.0092768
0.0090548
0.00867323
0.00819736
0.00767624
0.00713528
0.00663511
0.00603388
9.10264e-06
9.10686e-06
9.12264e-06
9.11078e-06
9.08492e-06
9.09198e-06
9.12479e-06
9.14188e-06
9.09196e-06
9.06181e-06
9.10947e-06
9.16305e-06
9.12466e-06
9.05537e-06
9.04572e-06
9.15287e-06
9.18753e-06
9.13693e-06
9.10191e-06
9.09247e-06
9.10646e-06
9.08229e-06
9.13005e-06
9.19216e-06
8.81316e-06
8.37712e-06
8.97619e-06
1.0565e-05
1.09587e-05
8.8137e-06
6.7647e-06
7.191e-06
9.86719e-06
1.18739e-05
9.637e-06
5.81442e-06
6.47678e-06
1.58891e-05
2.70296e-05
2.1714e-05
1.3956e-05
1.82369e-05
3.39158e-05
3.39835e-05
6.3008e-06
4.53122e-10
5.79231e-08
0.000304574
0.00334504
0.00601805
0.00772234
0.00874532
0.00924369
0.00935033
0.00918064
0.00882955
0.00837006
0.00785477
0.00732318
0.00679425
0.0063244
0.00576932
9.10438e-06
9.09799e-06
9.11269e-06
9.11976e-06
9.09815e-06
9.08616e-06
9.10517e-06
9.14334e-06
9.13058e-06
9.07119e-06
9.06881e-06
9.14442e-06
9.16208e-06
9.11364e-06
9.0376e-06
9.08139e-06
9.15953e-06
9.16437e-06
9.13984e-06
9.11597e-06
9.11073e-06
9.06862e-06
9.07318e-06
9.29384e-06
9.23915e-06
8.53963e-06
8.18708e-06
9.22324e-06
1.09308e-05
1.07472e-05
8.3857e-06
6.92619e-06
7.8856e-06
1.03991e-05
1.11446e-05
7.44906e-06
4.52129e-06
7.23964e-06
1.7307e-05
2.27701e-05
1.78063e-05
1.83086e-05
3.62115e-05
6.67741e-05
6.04283e-05
1.26629e-05
1.38454e-09
2.20382e-05
0.00242957
0.00547799
0.00739754
0.00858537
0.00920985
0.00940767
0.00929832
0.00898319
0.00854265
0.00803636
0.00750624
0.00698422
0.00648435
0.00605951
0.0055631
9.10493e-06
9.09588e-06
9.10085e-06
9.11597e-06
9.10921e-06
9.08956e-06
9.08807e-06
9.12293e-06
9.15141e-06
9.10594e-06
9.05639e-06
9.11167e-06
9.15905e-06
9.16581e-06
9.08473e-06
9.04506e-06
9.10569e-06
9.14244e-06
9.14982e-06
9.1456e-06
9.13876e-06
9.08977e-06
9.00021e-06
9.186e-06
9.51797e-06
9.15528e-06
8.24544e-06
8.17408e-06
9.62238e-06
1.11426e-05
1.03356e-05
8.13666e-06
7.34182e-06
8.67095e-06
1.08656e-05
9.77854e-06
5.13222e-06
3.67535e-06
7.51171e-06
1.45723e-05
1.5011e-05
1.29204e-05
2.16346e-05
5.61647e-05
9.5464e-05
9.0271e-05
2.10992e-05
4.18255e-08
0.00151894
0.00487082
0.00702235
0.0083855
0.00914637
0.00944567
0.00940576
0.00913313
0.00871539
0.00821936
0.00769305
0.00716967
0.00667518
0.00621974
0.00585277
0.00542464
9.10369e-06
9.09972e-06
9.09579e-06
9.10726e-06
9.114e-06
9.09841e-06
9.08177e-06
9.09624e-06
9.14302e-06
9.13679e-06
9.07749e-06
9.08186e-06
9.1372e-06
9.17512e-06
9.14397e-06
9.06317e-06
9.07058e-06
9.10215e-06
9.12424e-06
9.14812e-06
9.16365e-06
9.15076e-06
9.00806e-06
8.98886e-06
9.4191e-06
9.67016e-06
8.94913e-06
8.03046e-06
8.35772e-06
1.00199e-05
1.10531e-05
9.83345e-06
8.11683e-06
7.89826e-06
9.61138e-06
1.12016e-05
7.86046e-06
3.57804e-06
3.47113e-06
6.95858e-06
9.36326e-06
7.11528e-06
7.07298e-06
2.17405e-05
7.02831e-05
0.000121875
0.000120384
2.81784e-05
0.000815231
0.00417703
0.00659397
0.00814331
0.00904977
0.00946065
0.00950009
0.00927792
0.00888791
0.00840447
0.00788219
0.0073592
0.00686167
0.00641078
0.00601307
0.005714
0.00535958
9.10187e-06
9.10484e-06
9.09815e-06
9.10084e-06
9.11322e-06
9.10816e-06
9.08756e-06
9.07939e-06
9.11625e-06
9.14446e-06
9.10902e-06
9.07551e-06
9.10652e-06
9.15898e-06
9.17166e-06
9.10767e-06
9.07526e-06
9.07962e-06
9.09082e-06
9.11875e-06
9.1553e-06
9.20321e-06
9.11022e-06
8.89313e-06
9.07939e-06
9.67969e-06
9.68346e-06
8.68543e-06
7.94807e-06
8.64608e-06
1.02371e-05
1.06624e-05
9.43124e-06
8.23655e-06
8.60922e-06
1.09512e-05
1.12925e-05
6.30911e-06
3.2321e-06
3.88707e-06
5.61723e-06
4.14144e-06
1.69795e-06
1.77139e-06
2.06269e-05
8.48025e-05
0.000146422
0.000146075
0.000432589
0.00337563
0.00610967
0.00785687
0.00891724
0.00944882
0.00957769
0.0094152
0.00905947
0.00859193
0.00807467
0.0075515
0.00705232
0.00659755
0.00620405
0.00587437
0.00564913
0.00536674
9.10116e-06
9.10734e-06
9.10331e-06
9.09904e-06
9.1093e-06
9.11478e-06
9.1004e-06
9.07906e-06
9.09082e-06
9.13016e-06
9.1281e-06
9.08638e-06
9.09128e-06
9.12222e-06
9.17378e-06
9.14191e-06
9.10157e-06
9.08975e-06
9.07811e-06
9.08449e-06
9.11377e-06
9.19777e-06
9.22839e-06
8.97886e-06
8.80943e-06
9.2663e-06
9.87737e-06
9.54826e-06
8.42832e-06
7.99958e-06
8.94471e-06
1.01728e-05
1.01917e-05
9.15694e-06
8.41226e-06
9.76074e-06
1.27464e-05
1.12579e-05
6.00232e-06
4.09835e-06
4.71614e-06
3.83694e-06
9.04438e-07
3.95004e-08
6.12811e-08
2.29505e-05
9.8131e-05
0.000168022
0.000283085
0.00251258
0.00557521
0.00752529
0.00874674
0.00940672
0.00963447
0.0095416
0.00922839
0.00878173
0.00827124
0.0077478
0.00724588
0.00678845
0.0063908
0.00606533
0.00580976
0.00565722
0.00544442
9.10218e-06
9.10648e-06
9.10673e-06
9.10037e-06
9.10448e-06
9.11587e-06
9.11272e-06
9.0911e-06
9.08028e-06
9.10855e-06
9.12766e-06
9.09929e-06
9.09206e-06
9.09737e-06
9.14398e-06
9.1598e-06
9.12302e-06
9.11393e-06
9.09573e-06
9.072e-06
9.07156e-06
9.13399e-06
9.26609e-06
9.16941e-06
8.80215e-06
8.82761e-06
9.49059e-06
9.94393e-06
9.30071e-06
8.26596e-06
8.19765e-06
9.13298e-06
9.9248e-06
9.80912e-06
8.87141e-06
8.74422e-06
1.14889e-05
1.44159e-05
1.14402e-05
7.177e-06
6.30553e-06
6.02837e-06
2.20309e-06
1.53119e-08
5.74855e-10
9.15747e-08
2.60752e-05
0.000109475
0.000220745
0.00171455
0.00500255
0.00715187
0.00853735
0.00933165
0.00966637
0.0096529
0.00939171
0.00897293
0.00847259
0.00794925
0.00744366
0.00698217
0.00658157
0.00625207
0.00600094
0.00581841
0.00573651
0.00559284
9.1041e-06
9.10398e-06
9.107e-06
9.10254e-06
9.1005e-06
9.11153e-06
9.11868e-06
9.10594e-06
9.0854e-06
9.09411e-06
9.11574e-06
9.1049e-06
9.09719e-06
9.09372e-06
9.11331e-06
9.14987e-06
9.13297e-06
9.12683e-06
9.12378e-06
9.0911e-06
9.05745e-06
9.06226e-06
9.19805e-06
9.30662e-06
9.02529e-06
8.67735e-06
8.94226e-06
9.67666e-06
9.86829e-06
9.05692e-06
8.29319e-06
8.45873e-06
9.14556e-06
9.69987e-06
9.42737e-06
8.44257e-06
9.29584e-06
1.31359e-05
1.50641e-05
1.20613e-05
9.98642e-06
1.07847e-05
8.65832e-06
9.43709e-07
4.96994e-10
8.43478e-12
7.83877e-08
2.85442e-05
0.00012978
0.00106283
0.00437301
0.00674458
0.00829112
0.00922199
0.00966984
0.00974457
0.00954533
0.00916319
0.00867859
0.00815718
0.00764714
0.00718008
0.006775
0.00644271
0.00618791
0.00601025
0.00589856
0.00588697
0.00580627
9.10554e-06
9.10193e-06
9.10537e-06
9.10429e-06
9.09872e-06
9.10451e-06
9.11679e-06
9.11556e-06
9.09784e-06
9.09185e-06
9.10486e-06
9.10396e-06
9.09732e-06
9.10181e-06
9.09989e-06
9.1304e-06
9.1273e-06
9.12513e-06
9.13611e-06
9.12249e-06
9.08127e-06
9.02954e-06
9.08658e-06
9.29589e-06
9.27836e-06
8.85935e-06
8.64602e-06
9.10866e-06
9.78495e-06
9.71156e-06
8.93901e-06
8.48721e-06
8.61224e-06
9.10661e-06
9.55049e-06
8.76797e-06
7.89478e-06
9.77592e-06
1.36051e-05
1.45399e-05
1.33502e-05
1.52523e-05
1.98731e-05
1.38496e-05
1.0283e-06
1.20935e-11
2.46596e-12
7.65042e-08
3.22478e-05
0.000535488
0.00362666
0.00630584
0.00801461
0.00907851
0.00964217
0.00981225
0.00968442
0.0093487
0.0088876
0.00837221
0.00785815
0.00738386
0.00697246
0.00663586
0.00637872
0.00619788
0.00609145
0.00605
0.00610249
0.00607557
9.10566e-06
9.10131e-06
9.10372e-06
9.10536e-06