/*--------------------------------*- C++ -*----------------------------------*\
  =========                 |
  \\      /  F ield         | OpenFOAM: The Open Source CFD Toolbox
   \\    /   O peration     | Website:  https://openfoam.org
    \\  /    A nd           | Version:  dev
     \\/     M anipulation  |
\*---------------------------------------------------------------------------*/
FoamFile
{
    version     2.0;
    format      ascii;
    class       volScalarField;
    location    "200";
    object      nuTilda;
}
// * * * * * * * * * * * * * * * * * * * * * * * * * * * * * * * * * * * * * //

dimensions      [0 2 -1 0 0 0 0];

internalField   nonuniform List<scalar> 
29380
(
5.66813e-05
5.79154e-05
6.16356e-05
6.14921e-05
6.49762e-05
6.13717e-05
6.48758e-05
6.48001e-05
6.54642e-05
6.18849e-05
6.64812e-05
6.18652e-05
6.61225e-05
6.54354e-05
6.28629e-05
6.52151e-05
5.77671e-05
6.34607e-05
6.52854e-05
6.60606e-05
6.33828e-05
6.14182e-05
5.48635e-05
5.8699e-05
6.2241e-05
6.47734e-05
6.63099e-05
6.37597e-05
5.681e-05
5.49531e-05
5.43107e-05
5.78217e-05
6.0713e-05
6.44023e-05
6.64157e-05
6.40116e-05
5.36274e-05
5.79996e-05
5.28212e-05
5.44089e-05
5.59433e-05
5.9899e-05
6.40034e-05
6.65488e-05
6.41245e-05
5.34289e-05
6.20753e-05
5.51843e-05
5.39897e-05
5.3143e-05
5.5109e-05
5.91912e-05
6.38288e-05
6.66323e-05
6.40818e-05
5.62605e-05
6.461e-05
6.00971e-05
5.68403e-05
5.40798e-05
5.27483e-05
5.44773e-05
5.87867e-05
6.37874e-05
6.66929e-05
6.38932e-05
6.06638e-05
6.41272e-05
6.47395e-05
6.12884e-05
5.83739e-05
5.43409e-05
5.25769e-05
5.40603e-05
5.86381e-05
6.39316e-05
6.67795e-05
6.36823e-05
6.44912e-05
6.12371e-05
6.65187e-05
6.4728e-05
6.36049e-05
5.91291e-05
5.47686e-05
5.24003e-05
5.38816e-05
5.8786e-05
6.43107e-05
6.70035e-05
6.3514e-05
6.60206e-05
5.81419e-05
6.46789e-05
6.52559e-05
6.67343e-05
6.44234e-05
5.99413e-05
5.49626e-05
5.2295e-05
5.39516e-05
5.92409e-05
6.49043e-05
6.74993e-05
6.32621e-05
6.47482e-05
5.69981e-05
6.06843e-05
6.28428e-05
6.59765e-05
6.71924e-05
6.51645e-05
6.04183e-05
5.5e-05
5.22482e-05
5.4225e-05
5.98607e-05
6.5835e-05
6.80528e-05
6.29026e-05
6.14933e-05
5.83517e-05
5.71323e-05
5.92469e-05
6.19046e-05
6.591e-05
6.74363e-05
6.56576e-05
6.05865e-05
5.48672e-05
5.21804e-05
5.4521e-05
6.0676e-05
6.69825e-05
6.8443e-05
6.24964e-05
5.78772e-05
6.08229e-05
5.5987e-05
5.67577e-05
5.70523e-05
6.14675e-05
6.55182e-05
6.7655e-05
6.58633e-05
6.04481e-05
5.45039e-05
5.19819e-05
5.47218e-05
6.17569e-05
6.80531e-05
6.87152e-05
6.20352e-05
5.55243e-05
6.22677e-05
5.73899e-05
5.66738e-05
5.42817e-05
5.65609e-05
6.06694e-05
6.53257e-05
6.77743e-05
6.57953e-05
6.00121e-05
5.39377e-05
5.14092e-05
5.50782e-05
6.29103e-05
6.9002e-05
6.89662e-05
6.14733e-05
5.53731e-05
6.14972e-05
5.98366e-05
5.8577e-05
5.50068e-05
5.39786e-05
5.58088e-05
6.01694e-05
6.52788e-05
6.78013e-05
6.55406e-05
5.94247e-05
5.2915e-05
5.07605e-05
5.56361e-05
6.4005e-05
7.00009e-05
6.90256e-05
6.07897e-05
5.73419e-05
5.92001e-05
6.14762e-05
6.08472e-05
5.84379e-05
5.49274e-05
5.36763e-05
5.5285e-05
5.99715e-05
6.53656e-05
6.78498e-05
6.52722e-05
5.85762e-05
5.15936e-05
5.03339e-05
5.62518e-05
6.51904e-05
7.08903e-05
6.89342e-05
6.00256e-05
6.04155e-05
5.7352e-05
6.14782e-05
6.19445e-05
6.22704e-05
5.84603e-05
5.5207e-05
5.34257e-05
5.50416e-05
6.00568e-05
6.56428e-05
6.80181e-05
6.51214e-05
5.73651e-05
5.03752e-05
5.0085e-05
5.69395e-05
6.64311e-05
7.1737e-05
6.86708e-05
5.91633e-05
6.31041e-05
5.75963e-05
6.04433e-05
6.14628e-05
6.42636e-05
6.22779e-05
5.91353e-05
5.53708e-05
5.3273e-05
5.50823e-05
6.03646e-05
6.60858e-05
6.86365e-05
6.4769e-05
5.60577e-05
4.93878e-05
4.98332e-05
5.7815e-05
6.77771e-05
7.24333e-05
6.82373e-05
5.81729e-05
6.41205e-05
5.99e-05
5.96532e-05
6.02139e-05
6.35985e-05
6.4261e-05
6.29763e-05
5.96264e-05
5.53987e-05
5.32648e-05
5.5245e-05
6.07762e-05
6.70447e-05
6.93618e-05
6.41634e-05
5.49174e-05
4.83114e-05
4.97647e-05
5.89009e-05
6.90793e-05
7.30373e-05
6.76846e-05
5.69837e-05
6.3012e-05
6.25539e-05
5.98801e-05
5.93949e-05
6.11615e-05
6.36828e-05
6.46367e-05
6.35367e-05
5.98312e-05
5.53629e-05
5.32355e-05
5.53954e-05
6.14452e-05
6.8378e-05
6.9827e-05
6.35517e-05
5.36525e-05
4.72628e-05
4.98934e-05
6.00948e-05
7.04322e-05
7.36704e-05
6.68683e-05
5.56921e-05
6.04294e-05
6.3509e-05
6.07688e-05
5.95828e-05
5.871e-05
6.13863e-05
6.35776e-05
6.49787e-05
6.38269e-05
5.97895e-05
5.52193e-05
5.31094e-05
5.53775e-05
6.25337e-05
6.96101e-05
7.00809e-05
6.28669e-05
5.22143e-05
4.62703e-05
5.02527e-05
6.14553e-05
7.1967e-05
7.42267e-05
6.58863e-05
5.44229e-05
5.78148e-05
6.19784e-05
6.12588e-05
6.03635e-05
5.76288e-05
5.89835e-05
6.08748e-05
6.35272e-05
6.52241e-05
6.37922e-05
5.96434e-05
5.49804e-05
5.24989e-05
5.55557e-05
6.37499e-05
7.05086e-05
7.03793e-05
6.19221e-05
5.06405e-05
4.55288e-05
5.07872e-05
6.30529e-05
7.37137e-05
7.47089e-05
6.49147e-05
5.32396e-05
5.66084e-05
5.90436e-05
6.06157e-05
6.0822e-05
5.81571e-05
5.7754e-05
5.83116e-05
6.04492e-05
6.36182e-05
6.52117e-05
6.37025e-05
5.94735e-05
5.42593e-05
5.17266e-05
5.60126e-05
6.46798e-05
7.1561e-05
7.05399e-05
6.07221e-05
4.92077e-05
4.48541e-05
5.14619e-05
6.50877e-05
7.55496e-05
7.51677e-05
6.39776e-05
5.20786e-05
5.74049e-05
5.68156e-05
5.91499e-05
6.04064e-05
5.95111e-05
5.79921e-05
5.72235e-05
5.77055e-05
6.03373e-05
6.36531e-05
6.51711e-05
6.36609e-05
5.91379e-05
5.31189e-05
5.12066e-05
5.63972e-05
6.57825e-05
7.27471e-05
7.04899e-05
5.94653e-05
4.76927e-05
4.41182e-05
5.25694e-05
6.7348e-05
7.73371e-05
7.55381e-05
6.29968e-05
5.08577e-05
5.95996e-05
5.68388e-05
5.8e-05
5.94159e-05
6.06426e-05
5.91096e-05
5.78382e-05
5.67205e-05
5.74185e-05
6.04358e-05
6.3642e-05
6.51861e-05
6.38664e-05
5.84015e-05
5.20471e-05
5.08901e-05
5.68528e-05
6.72479e-05
7.39215e-05
7.01929e-05
5.80445e-05
4.59398e-05
4.35338e-05
5.39115e-05
6.95676e-05
7.89554e-05
7.58021e-05
6.1906e-05
4.95982e-05
6.17866e-05
5.89829e-05
5.81771e-05
5.87215e-05
6.0986e-05
6.02432e-05
5.94041e-05
5.76846e-05
5.63563e-05
5.7552e-05
6.04705e-05
6.3623e-05
6.56766e-05
6.39556e-05
5.75194e-05
5.13614e-05
5.04746e-05
5.76656e-05
6.89348e-05
7.47727e-05
6.97764e-05
5.63596e-05
4.39128e-05
4.30383e-05
5.5259e-05
7.16436e-05
8.04774e-05
7.59976e-05
6.06662e-05
4.84475e-05
6.26665e-05
6.16334e-05
5.96903e-05
5.89956e-05
6.06829e-05
6.08448e-05
6.085e-05
5.96915e-05
5.73883e-05
5.64396e-05
5.76692e-05
6.04217e-05
6.3976e-05
6.64073e-05
6.37971e-05
5.69999e-05
5.04486e-05
5.01356e-05
5.88056e-05
7.03903e-05
7.56355e-05
6.92476e-05
5.40828e-05
4.17526e-05
4.26103e-05
5.66e-05
7.37197e-05
8.20504e-05
7.60403e-05
5.93163e-05
4.75275e-05
6.18571e-05
6.29533e-05
6.14925e-05
6.0119e-05
6.02495e-05
6.08803e-05
6.14609e-05
6.14554e-05
5.96075e-05
5.73235e-05
5.66303e-05
5.7691e-05
6.03948e-05
6.47519e-05
6.69574e-05
6.37754e-05
5.62633e-05
4.92214e-05
5.00096e-05
5.99377e-05
7.19695e-05
7.66156e-05
6.81346e-05
5.15168e-05
3.96967e-05
4.23482e-05
5.80761e-05
7.59867e-05
8.35972e-05
7.57559e-05
5.78821e-05
4.69445e-05
6.00641e-05
6.22019e-05
6.22852e-05
6.12596e-05
6.00669e-05
6.06296e-05
6.11714e-05
6.20855e-05
6.1659e-05
5.93685e-05
5.74924e-05
5.68051e-05
5.73887e-05
6.06763e-05
6.55194e-05
6.7342e-05
6.36955e-05
5.49823e-05
4.79242e-05
5.01153e-05
6.11962e-05
7.38128e-05
7.73748e-05
6.67528e-05
4.90335e-05
3.78977e-05
4.23027e-05
5.98042e-05
7.84277e-05
8.47874e-05
7.50115e-05
5.65209e-05
4.65838e-05
5.85246e-05
6.01406e-05
6.15209e-05
6.15398e-05
6.01232e-05
6.03607e-05
6.0413e-05
6.14803e-05
6.25204e-05
6.13478e-05
5.93801e-05
5.77669e-05
5.65495e-05
5.7071e-05
6.10961e-05
6.59171e-05
6.78838e-05
6.31886e-05
5.33571e-05
4.69802e-05
5.02392e-05
6.26792e-05
7.59541e-05
7.80592e-05
6.53752e-05
4.67384e-05
3.62695e-05
4.24175e-05
6.18475e-05
8.07216e-05
8.53933e-05
7.38722e-05
5.53287e-05
4.59537e-05
5.81492e-05
5.83244e-05
5.97996e-05
6.07339e-05
6.01504e-05
6.01549e-05
5.9731e-05
6.02185e-05
6.19515e-05
6.23306e-05
6.11374e-05
5.95677e-05
5.78019e-05
5.59788e-05
5.69156e-05
6.11551e-05
6.66022e-05
6.84179e-05
6.22636e-05
5.20126e-05
4.59261e-05
5.03908e-05
6.48231e-05
7.82655e-05
7.86539e-05
6.39808e-05
4.4445e-05
3.45763e-05
4.27978e-05
6.40996e-05
8.26634e-05
8.53418e-05
7.25929e-05
5.38605e-05
4.47885e-05
5.89726e-05
5.79167e-05
5.83747e-05
5.94355e-05
5.99559e-05
5.99614e-05
5.94552e-05
5.91157e-05
6.04741e-05
6.20429e-05
6.19872e-05
6.10584e-05
5.98541e-05
5.74559e-05
5.54764e-05
5.66076e-05
6.14519e-05
6.77377e-05
6.87334e-05
6.13869e-05
5.05202e-05
4.46906e-05
5.11824e-05
6.72706e-05
8.04387e-05
7.90136e-05
6.23895e-05
4.18529e-05
3.28865e-05
4.36667e-05
6.65035e-05
8.40749e-05
8.49001e-05
7.11872e-05
5.11649e-05
4.38349e-05
6.02595e-05
5.89405e-05
5.81949e-05
5.85838e-05
5.96269e-05
5.9753e-05
5.95912e-05
5.87452e-05
5.8989e-05
6.08412e-05
6.17763e-05
6.16348e-05
6.13253e-05
5.99636e-05
5.7057e-05
5.50971e-05
5.63291e-05
6.23881e-05
6.90181e-05
6.88351e-05
6.04525e-05
4.87759e-05
4.3697e-05
5.22168e-05
6.9616e-05
8.22909e-05
7.90768e-05
6.04187e-05
3.89277e-05
3.16769e-05
4.51728e-05
6.88798e-05
8.51141e-05
8.45455e-05
6.86371e-05
4.70198e-05
4.43838e-05
6.11135e-05
6.04455e-05
5.9242e-05
5.87484e-05
5.94443e-05
5.96055e-05
5.99231e-05
5.91751e-05
5.82736e-05
5.94327e-05
6.08401e-05
6.13588e-05
6.1627e-05
6.17317e-05
5.99693e-05
5.69613e-05
5.45105e-05
5.64734e-05
6.37673e-05
6.9947e-05
6.90288e-05
5.93792e-05
4.67422e-05
4.274e-05
5.32595e-05
7.1754e-05
8.39221e-05
7.89173e-05
5.79342e-05
3.61444e-05
3.12418e-05
4.72525e-05
7.12232e-05
8.65108e-05
8.37309e-05
6.35107e-05
4.27573e-05
4.6727e-05
6.10963e-05
6.13359e-05
6.06427e-05
5.97342e-05
5.96114e-05
5.96347e-05
6.02026e-05
6.00184e-05
5.86034e-05
5.85162e-05
5.97186e-05
6.06448e-05
6.10605e-05
6.19584e-05
6.2081e-05
6.02701e-05
5.65488e-05
5.38593e-05
5.70931e-05
6.48646e-05
7.10557e-05
6.9288e-05
5.76752e-05
4.4539e-05
4.19164e-05
5.43438e-05
7.38838e-05
8.56543e-05
7.83856e-05
5.5112e-05
3.37833e-05
3.16877e-05
4.97747e-05
7.41587e-05
8.85098e-05
8.04681e-05
5.59134e-05
4.0312e-05
4.98286e-05
6.04212e-05
6.11561e-05
6.13967e-05
6.07855e-05
6.00548e-05
5.98685e-05
6.02956e-05
6.07214e-05
5.96637e-05
5.84766e-05
5.89121e-05
5.98959e-05
6.02924e-05
6.10518e-05
6.23208e-05
6.25563e-05
6.03469e-05
5.56304e-05
5.34178e-05
5.76658e-05
6.60925e-05
7.23719e-05
6.89595e-05
5.57286e-05
4.25298e-05
4.13668e-05
5.56377e-05
7.64053e-05
8.74405e-05
7.72123e-05
5.20444e-05
3.20667e-05
3.28508e-05
5.29402e-05
7.86578e-05
8.95887e-05
7.34343e-05
4.8493e-05
4.08263e-05
5.28771e-05
5.96711e-05
6.02714e-05
6.11063e-05
6.11852e-05
6.04702e-05
6.01865e-05
6.02178e-05
6.09028e-05
6.07759e-05
5.92332e-05
5.87251e-05
5.93508e-05
5.97768e-05
5.99834e-05
6.11203e-05
6.25967e-05
6.30449e-05
5.98053e-05
5.45212e-05
5.31852e-05
5.82161e-05
6.75114e-05
7.34763e-05
6.84749e-05
5.3927e-05
4.08638e-05
4.11128e-05
5.73772e-05
7.94385e-05
8.86888e-05
7.52214e-05
4.8931e-05
3.08848e-05
3.44068e-05
5.79881e-05
8.45995e-05
8.75425e-05
6.46231e-05
4.48131e-05
4.44487e-05
5.59815e-05
5.93307e-05
5.94391e-05
6.01588e-05
6.07617e-05
6.05653e-05
6.03906e-05
6.00756e-05
6.05506e-05
6.1308e-05
6.03047e-05
5.91785e-05
5.91249e-05
5.95657e-05
5.94461e-05
5.97178e-05
6.09724e-05
6.31136e-05
6.31904e-05
5.8792e-05
5.37412e-05
5.27897e-05
5.88117e-05
6.91784e-05
7.45824e-05
6.7994e-05
5.2336e-05
3.94032e-05
4.10633e-05
5.98005e-05
8.24139e-05
8.90347e-05
7.24529e-05
4.5746e-05
2.9567e-05
3.72325e-05
6.64536e-05
9.00214e-05
8.24223e-05
5.8364e-05
4.64475e-05
5.06815e-05
6.66707e-05
5.94989e-05
5.91987e-05
5.93196e-05
5.99321e-05
6.02888e-05
6.03496e-05
5.99721e-05
5.99742e-05
6.10344e-05
6.10794e-05
6.00002e-05
5.92676e-05
5.95093e-05
5.94838e-05
5.90805e-05
5.9246e-05
6.11361e-05
6.3756e-05
6.28784e-05
5.80225e-05
5.27767e-05
5.22853e-05
5.99246e-05
7.09534e-05
7.55327e-05
6.74799e-05
5.07552e-05
3.77614e-05
4.14268e-05
6.27206e-05
8.49884e-05
8.83171e-05
6.89342e-05
4.18319e-05
2.81712e-05
4.38203e-05
7.7732e-05
9.25388e-05
7.68281e-05
5.69215e-05
5.20115e-05
5.59542e-05
0.000427212
5.99213e-05
5.95572e-05
5.91267e-05
5.93216e-05
5.98579e-05
6.00973e-05
5.99452e-05
5.95668e-05
6.02328e-05
6.11616e-05
6.07406e-05
5.97318e-05
5.95291e-05
5.9725e-05
5.93169e-05
5.86264e-05
5.89575e-05
6.17807e-05
6.42314e-05
6.25808e-05
5.71797e-05
5.16512e-05
5.22468e-05
6.11429e-05
7.24859e-05
7.62458e-05
6.6814e-05
4.87231e-05
3.59623e-05
4.25389e-05
6.60361e-05
8.6891e-05
8.65609e-05
6.43533e-05
3.64064e-05
2.88e-05
5.53496e-05
8.78269e-05
9.09737e-05
7.23831e-05
5.86189e-05
5.9478e-05
6.00154e-05
0.00226855
6.02563e-05
6.01103e-05
5.95653e-05
5.92943e-05
5.9581e-05
5.9806e-05
5.99664e-05
5.95456e-05
5.94639e-05
6.05923e-05
6.10052e-05
6.03194e-05
5.96814e-05
5.98537e-05
5.98794e-05
5.91999e-05
5.81167e-05
5.91811e-05
6.26307e-05
6.44981e-05
6.23665e-05
5.62431e-05
5.06951e-05
5.22455e-05
6.21603e-05
7.37252e-05
7.67762e-05
6.5738e-05
4.6034e-05
3.46711e-05
4.46243e-05
6.95391e-05
8.81133e-05
8.39224e-05
5.75132e-05
2.99641e-05
3.38138e-05
6.81686e-05
9.16541e-05
8.51127e-05
6.79932e-05
6.09209e-05
8.21289e-05
0.00100924
0.00443122
6.03237e-05
6.04274e-05
6.01877e-05
5.97511e-05
5.96285e-05
5.96624e-05
5.99845e-05
5.98401e-05
5.91896e-05
5.97965e-05
6.06865e-05
6.07283e-05
6.00086e-05
5.98593e-05
6.01956e-05
6.01641e-05
5.88344e-05
5.78392e-05
5.9829e-05
6.31941e-05
6.49347e-05
6.21701e-05
5.51377e-05
4.97317e-05
5.22021e-05
6.29827e-05
7.48709e-05
7.72323e-05
6.39221e-05
4.32729e-05
3.43199e-05
4.76803e-05
7.32052e-05
8.91426e-05
7.94157e-05
4.69755e-05
2.47225e-05
4.20071e-05
7.56191e-05
8.69511e-05
7.52505e-05
6.24482e-05
6.01575e-05
0.000548265
0.00342134
0.00596762
6.01763e-05
6.03611e-05
6.05222e-05
6.02802e-05
5.99289e-05
5.97425e-05
5.99743e-05
6.01888e-05
5.94916e-05
5.92854e-05
6.00307e-05
6.07263e-05
6.03941e-05
5.99203e-05
6.01239e-05
6.06619e-05
6.01723e-05
5.83161e-05
5.79314e-05
6.02961e-05
6.38891e-05
6.54525e-05
6.16148e-05
5.40492e-05
4.89245e-05
5.21351e-05
6.3821e-05
7.63409e-05
7.73634e-05
6.15005e-05
4.08108e-05
3.51212e-05
5.17142e-05
7.7557e-05
8.9685e-05
7.04673e-05
3.35798e-05
2.2866e-05
4.89346e-05
7.44898e-05
7.55684e-05
6.23026e-05
5.48324e-05
0.000211336
0.0026643
0.00526736
0.0070961
5.99877e-05
6.00711e-05
6.04145e-05
6.05048e-05
6.02452e-05
5.99736e-05
5.99518e-05
6.03461e-05
6.0075e-05
5.93228e-05
5.94709e-05
6.03235e-05
6.06017e-05
6.01304e-05
5.99246e-05
6.04463e-05
6.0995e-05
5.97839e-05
5.79022e-05
5.80501e-05
6.07732e-05
6.46473e-05
6.56389e-05
6.11276e-05
5.32492e-05
4.82413e-05
5.21172e-05
6.51561e-05
7.81334e-05
7.67655e-05
5.85439e-05
3.89402e-05
3.71481e-05
5.70128e-05
8.30858e-05
8.74898e-05
5.61455e-05
2.19586e-05
2.51652e-05
5.23646e-05
6.74447e-05
6.04906e-05
4.64053e-05
7.95609e-05
0.0017816
0.00476799
0.00662029
0.00789141
5.98856e-05
5.98319e-05
6.00564e-05
6.03429e-05
6.03629e-05
6.01959e-05
5.99518e-05
6.02438e-05
6.0518e-05
5.979e-05
5.93352e-05
5.97846e-05
6.04699e-05
6.03687e-05
5.98995e-05
5.99097e-05
6.08476e-05
6.0956e-05
5.92111e-05
5.76842e-05
5.80703e-05
6.1256e-05
6.5258e-05
6.5888e-05
6.09153e-05
5.26427e-05
4.75539e-05
5.24086e-05
6.72539e-05
7.95668e-05
7.51501e-05
5.52333e-05
3.77851e-05
4.03525e-05
6.45326e-05
8.91175e-05
8.04886e-05
4.11103e-05
1.82011e-05
3.19771e-05
5.439e-05
5.81604e-05
4.30203e-05
2.93389e-05
0.000991358
0.00414377
0.00626751
0.00759727
0.00841185
5.99018e-05
5.9785e-05
5.97717e-05
5.9994e-05
6.02388e-05
6.02778e-05
5.99902e-05
6.00032e-05
6.05671e-05
6.03178e-05
5.96453e-05
5.94506e-05
6.00689e-05
6.04222e-05
6.00919e-05
5.96039e-05
6.01173e-05
6.11141e-05
6.05969e-05
5.88639e-05
5.73447e-05
5.80649e-05
6.18065e-05
6.58331e-05
6.62467e-05
6.08888e-05
5.19717e-05
4.67534e-05
5.33873e-05
6.95933e-05
8.01699e-05
7.24633e-05
5.16749e-05
3.70664e-05
4.56245e-05
7.5487e-05
9.36655e-05
7.07985e-05
3.3568e-05
2.53869e-05
4.35744e-05
5.73166e-05
4.80605e-05
2.05946e-05
0.000417681
0.00341204
0.00582729
0.00736388
0.00826375
0.00870743
5.99692e-05
5.99095e-05
5.97256e-05
5.97458e-05
5.99964e-05
6.0197e-05
6.00487e-05
5.98156e-05
6.02703e-05
6.05669e-05
6.01374e-05
5.95048e-05
5.9665e-05
6.02062e-05
6.02929e-05
5.97502e-05
5.95248e-05
6.04646e-05
6.11335e-05
6.0352e-05
5.84565e-05
5.69989e-05
5.82672e-05
6.2192e-05
6.628e-05
6.67301e-05
6.0821e-05
5.08325e-05
4.6098e-05
5.50205e-05
7.18257e-05
7.96861e-05
6.87226e-05
4.75688e-05
3.71661e-05
5.52645e-05
8.90338e-05
9.50676e-05
6.40293e-05
3.76844e-05
4.16913e-05
5.93696e-05
6.17512e-05
3.58188e-05
0.000118897
0.00254922
0.0053296
0.0070686
0.00812744
0.00867487
0.00882131
6.00189e-05
6.00591e-05
5.98912e-05
5.97271e-05
5.98177e-05
6.0033e-05
6.00875e-05
5.9797e-05
5.9891e-05
6.044e-05
6.04746e-05
5.98624e-05
5.95207e-05
5.98606e-05
6.02833e-05
6.01318e-05
5.94906e-05
5.97288e-05
6.07639e-05
6.11026e-05
6.01326e-05
5.808e-05
5.68829e-05
5.82604e-05
6.22672e-05
6.67565e-05
6.72899e-05
6.0257e-05
4.92041e-05
4.60464e-05
5.73141e-05
7.36632e-05
7.8003e-05
6.37781e-05
4.26706e-05
4.00826e-05
6.9889e-05
0.000100609
9.29971e-05
6.29786e-05
5.0519e-05
6.37483e-05
7.86391e-05
6.70144e-05
4.01956e-05
0.00164124
0.00476343
0.00672669
0.00795012
0.00861607
0.00887865
0.00879044
6.00408e-05
6.01089e-05
6.00869e-05
5.98993e-05
5.97901e-05
5.99008e-05
6.00806e-05
5.99184e-05
5.96881e-05
6.01031e-05
6.04768e-05
6.02564e-05
5.97026e-05
5.9635e-05
6.00507e-05
6.03709e-05
5.98895e-05
5.94678e-05
6.00666e-05
6.09048e-05
6.11434e-05
5.99471e-05
5.78545e-05
5.66681e-05
5.79253e-05
6.22575e-05
6.74302e-05
6.768e-05
5.89146e-05
4.77237e-05
4.69582e-05
6.01437e-05
7.48981e-05
7.51507e-05
5.69838e-05
3.7574e-05
4.73498e-05
8.45903e-05
0.000104101
8.71974e-05
6.5287e-05
6.77548e-05
8.97625e-05
0.0001003
6.97669e-05
0.000874863
0.00411353
0.00633012
0.00773424
0.00853369
0.0088805
0.00891664
0.00864638
6.00283e-05
6.00857e-05
6.01531e-05
6.0093e-05
5.99014e-05
5.98596e-05
6.00332e-05
6.00626e-05
5.97414e-05
5.98191e-05
6.02167e-05
6.04378e-05
6.00505e-05
5.96825e-05
5.97866e-05
6.02796e-05
6.02892e-05
5.97136e-05
5.964e-05
6.02507e-05
6.11046e-05
6.11729e-05
5.97824e-05
5.77418e-05
5.62919e-05
5.74026e-05
6.24488e-05
6.8388e-05
6.75369e-05
5.71968e-05
4.6867e-05
4.89571e-05
6.33091e-05
7.56423e-05
7.04875e-05
4.73606e-05
3.37503e-05
5.6461e-05
9.10897e-05
9.63638e-05
7.7256e-05
6.81345e-05
8.74108e-05
0.000118326
0.000119364
0.000409061
0.00334869
0.005874
0.007475
0.00841989
0.00887307
0.00896495
0.00882444
0.00841608
6.00093e-05
6.00006e-05
6.0123e-05
6.01604e-05
6.00429e-05
5.99133e-05
5.99763e-05
6.01213e-05
5.99407e-05
5.9751e-05
5.99212e-05
6.03408e-05
6.03149e-05
5.9945e-05
5.97041e-05
5.99793e-05
6.03688e-05
6.01047e-05
5.96679e-05
5.97527e-05
6.04494e-05
6.12387e-05
6.10985e-05
5.98957e-05
5.77318e-05
5.56904e-05
5.6926e-05
6.31873e-05
6.94067e-05
6.67914e-05
5.53804e-05
4.69223e-05
5.19685e-05
6.68774e-05
7.55805e-05
6.22405e-05
3.55449e-05
3.23759e-05
6.18387e-05
8.52332e-05
7.91e-05
6.34173e-05
7.03269e-05
0.000108729
0.000145922
0.000229875
0.0024787
0.00535579
0.00716832
0.00827256
0.00884055
0.00901548
0.00890762
0.00863243
0.00812272
6.0003e-05
5.99438e-05
6.0007e-05
6.01372e-05
6.01112e-05
6.00009e-05
5.99497e-05
6.00794e-05
6.01042e-05
5.98732e-05
5.97887e-05
6.00908e-05
6.03453e-05
6.02149e-05
5.98555e-05
5.97439e-05
6.0142e-05
6.0284e-05
5.99322e-05
5.96712e-05
5.98449e-05
6.05738e-05
6.11992e-05
6.12893e-05
6.03213e-05
5.75684e-05
5.49077e-05
5.68875e-05
6.4511e-05
7.00252e-05
6.53424e-05
5.37246e-05
4.80028e-05
5.59612e-05
7.09505e-05
7.32844e-05
5.00532e-05
2.54834e-05
3.36583e-05
6.07242e-05
6.96886e-05
5.53815e-05
4.58493e-05
7.26291e-05
0.000131859
0.000188266
0.00162534
0.00477478
0.00681105
0.00808753
0.00878307
0.0090463
0.00900198
0.00874125
0.00836665
0.00778642
6.00049e-05
5.99501e-05
5.99241e-05
6.00253e-05
6.01198e-05
6.00596e-05
5.99631e-05
5.99941e-05
6.01369e-05
6.00367e-05
5.98561e-05
5.9886e-05
6.0175e-05
6.03079e-05
6.0106e-05
5.97501e-05
5.98626e-05
6.0175e-05
6.01237e-05
5.98627e-05
5.96468e-05
5.99175e-05
6.05394e-05
6.12273e-05
6.18227e-05
6.07636e-05
5.70841e-05
5.41631e-05
5.75399e-05
6.58919e-05
6.98423e-05
6.32491e-05
5.24906e-05
5.00338e-05
6.12993e-05
7.52154e-05
6.78288e-05
3.81938e-05
2.26033e-05
3.76775e-05
5.50178e-05
4.84935e-05
2.67331e-05
2.73188e-05
8.0339e-05
0.000154543
0.000952558
0.00411746
0.00640037
0.00786154
0.0086965
0.00905953
0.00908104
0.00886798
0.00849385
0.00804957
0.00742498
6.00055e-05
5.99936e-05
5.99246e-05
5.99367e-05
6.00534e-05
6.00874e-05
6.00055e-05
5.99402e-05
6.00522e-05
6.01167e-05
6.00142e-05
5.9841e-05
5.9967e-05
6.01921e-05
6.02608e-05
5.99563e-05
5.97644e-05
5.99581e-05
6.01166e-05
6.00473e-05
5.97768e-05
5.9682e-05
5.99244e-05
6.03219e-05
6.14302e-05
6.25569e-05
6.09468e-05
5.62257e-05
5.37542e-05
5.86273e-05
6.69047e-05
6.86807e-05
6.07871e-05
5.16673e-05
5.33712e-05
6.87716e-05
7.87915e-05
6.13776e-05
3.36558e-05
2.94834e-05
4.43968e-05
4.73955e-05
2.39636e-05
6.41144e-06
2.41207e-05
8.9299e-05
0.000506315
0.0033578
0.00593479
0.00759145
0.00857775
0.0090512
0.00914863
0.00898284
0.00864385
0.00818957
0.00770089
0.00705447
6.00025e-05
6.00297e-05
5.99798e-05
5.99226e-05
5.99827e-05
6.00629e-05
6.0051e-05
5.99598e-05
5.99515e-05
6.00727e-05
6.01287e-05
5.9936e-05
5.98659e-05
5.9992e-05
6.02212e-05
6.01736e-05
5.98842e-05
5.98488e-05
6.00026e-05
6.00799e-05
5.99643e-05
5.97898e-05
5.97758e-05
5.96191e-05
6.00158e-05
6.19186e-05
6.32703e-05
6.0605e-05
5.51587e-05
5.38297e-05
5.99827e-05
6.72533e-05
6.66712e-05
5.80723e-05
5.14019e-05
5.92198e-05
7.79849e-05
8.07452e-05
5.82622e-05
3.97517e-05
4.43189e-05
5.37854e-05
4.00054e-05
3.0701e-06
3.07965e-07
2.34148e-05
0.000218878
0.00250419
0.00541433
0.00727547
0.00842361
0.00901862
0.0092011
0.00909115
0.00878456
0.00835578
0.00784949
0.00733827
0.00668978
5.99999e-05
6.00347e-05
6.00326e-05
5.99643e-05
5.99508e-05
6.00181e-05
6.00715e-05
6.00157e-05
5.99259e-05
5.99768e-05
6.01196e-05
6.00663e-05
5.99098e-05
5.98617e-05
6.00495e-05
6.02391e-05
6.00795e-05
5.99135e-05
5.99365e-05
6.00129e-05
6.00373e-05
5.99469e-05
5.99502e-05
5.9638e-05
5.90268e-05
5.99158e-05
6.26473e-05
6.36518e-05
5.96962e-05
5.42979e-05
5.45808e-05
6.13805e-05
6.683e-05
6.40119e-05
5.50249e-05
5.24839e-05
6.77395e-05
8.58206e-05
8.06179e-05
6.05923e-05
5.42438e-05
6.47765e-05
6.69047e-05
3.87372e-05
2.1851e-06
2.96148e-07
6.14944e-05
0.00162951
0.00482952
0.0069119
0.00823157
0.00895872
0.00923629
0.00918966
0.00892248
0.00851454
0.00802653
0.00749237
0.00697794
0.00634506
6.00013e-05
6.00153e-05
6.00477e-05
6.00147e-05
5.99598e-05
5.99822e-05
6.00543e-05
6.00771e-05
5.99614e-05
5.99222e-05
6.00292e-05
6.01272e-05
6.00276e-05
5.98786e-05
5.98881e-05
6.01367e-05
6.01837e-05
6.00543e-05
5.99789e-05
5.99715e-05
6.00162e-05
5.99789e-05
6.00795e-05
6.01064e-05
5.91953e-05
5.84359e-05
6.01659e-05
6.34302e-05
6.35075e-05
5.86089e-05
5.40511e-05
5.59893e-05
6.25108e-05
6.57832e-05
6.05375e-05
5.15999e-05
5.53699e-05
7.57302e-05
8.80317e-05
7.84269e-05
6.72148e-05
7.41993e-05
9.04757e-05
8.56513e-05
4.69753e-05
4.17651e-06
7.92439e-05
0.000853806
0.00415006
0.00649518
0.00799909
0.00886863
0.00925144
0.00927681
0.00905482
0.00867324
0.00819738
0.00767626
0.00713531
0.00663514
0.00603392
6.00052e-05
5.99939e-05
6.00285e-05
6.00391e-05
5.99883e-05
5.99671e-05
6.00142e-05
6.00913e-05
6.0045e-05
5.9924e-05
5.99442e-05
6.01027e-05
6.01161e-05
5.99978e-05
5.98506e-05
5.99734e-05
6.0142e-05
6.01341e-05
6.00675e-05
6.00112e-05
6.0007e-05
5.99355e-05
5.99875e-05
6.0422e-05
6.01198e-05
5.8549e-05
5.80831e-05
6.07853e-05
6.4054e-05
6.2959e-05
5.76936e-05
5.46123e-05
5.77028e-05
6.3344e-05
6.40324e-05
5.55743e-05
4.82022e-05
5.86594e-05
7.8282e-05
8.30108e-05
7.47562e-05
7.63314e-05
9.81261e-05
0.000119501
0.000105235
5.71986e-05
9.16062e-06
0.000312251
0.00334515
0.00601809
0.00772236
0.00874533
0.00924371
0.00935035
0.00918066
0.00882957
0.00837007
0.00785479
0.00732321
0.00679428
0.00632443
0.00576936
6.00072e-05
5.99865e-05
6.00008e-05
6.00335e-05
6.00138e-05
5.99722e-05
5.99756e-05
6.00541e-05
6.01013e-05
5.99926e-05
5.99018e-05
6.00306e-05
6.01301e-05
6.0116e-05
5.99354e-05
5.98793e-05
6.00228e-05
6.01017e-05
6.01055e-05
6.00821e-05
6.00584e-05
5.99518e-05
5.98063e-05
6.02671e-05
6.08516e-05
5.9853e-05
5.78881e-05
5.81535e-05
6.16611e-05
6.43322e-05
6.20809e-05
5.72358e-05
5.57872e-05
5.94878e-05
6.39483e-05
6.08723e-05
4.9264e-05
4.57525e-05
5.98028e-05
7.34351e-05
7.25149e-05
6.96206e-05
8.60454e-05
0.000123225
0.000143009
0.000123741
6.16863e-05
8.02774e-05
0.00242979
0.00547803
0.00739757
0.00858538
0.00920987
0.00940769
0.00929834
0.00898321
0.00854267
0.00803638
0.00750626
0.00698425
0.00648438
0.00605954
0.00556314
6.00052e-05
5.99936e-05
5.99867e-05
6.00142e-05
6.00257e-05
5.99898e-05
5.99579e-05
5.99965e-05
6.00939e-05
6.00653e-05
5.99365e-05
5.99645e-05
6.00782e-05
6.0163e-05
6.00648e-05
5.98972e-05
5.99358e-05
6.00107e-05
6.00616e-05
6.01031e-05
6.01218e-05
6.00699e-05
5.9771e-05
5.98319e-05
6.07878e-05
6.10964e-05
5.93472e-05
5.74424e-05
5.86756e-05
6.24576e-05
6.40398e-05
6.1087e-05
5.73248e-05
5.72495e-05
6.14752e-05
6.41074e-05
5.61966e-05
4.38652e-05
4.5109e-05
5.76369e-05
6.2805e-05
5.7829e-05
6.14571e-05
9.48218e-05
0.000142487
0.000164949
0.000140902
8.06909e-05
0.00151951
0.00487087
0.00702238
0.00838552
0.00914638
0.00944568
0.00940577
0.00913314
0.00871541
0.00821938
0.00769307
0.00716969
0.00667521
0.00621977
0.0058528
0.00542468
6.00011e-05
6.00053e-05
5.99902e-05
5.99987e-05
6.0025e-05
6.00106e-05
5.99665e-05
5.99554e-05
6.00401e-05
6.00914e-05
6.00058e-05
5.99416e-05
6.00164e-05
6.01206e-05
6.01515e-05
5.99921e-05
5.99301e-05
5.99514e-05
5.99835e-05
6.00505e-05
6.01215e-05
6.01978e-05
5.9961e-05
5.9547e-05
6.00937e-05
6.13226e-05
6.10438e-05
5.87511e-05
5.73384e-05
5.93952e-05
6.28173e-05
6.32072e-05
6.03186e-05
5.77311e-05
5.90333e-05
6.40274e-05
6.36385e-05
5.19567e-05
4.23837e-05
4.6288e-05
5.25612e-05
4.78021e-05
3.82853e-05
4.97634e-05
0.000101185
0.000160845
0.000186167
0.000155615
0.000817602
0.0041771
0.006594
0.00814333
0.00904979
0.00946067
0.0095001
0.00927793
0.00888792
0.00840449
0.00788221
0.00735922
0.00686169
0.00641081
0.0060131
0.00571403
0.00535963
5.99988e-05
6.00121e-05
6.00017e-05
5.99937e-05
6.00171e-05
6.00258e-05
5.99925e-05
5.99495e-05
5.99823e-05
6.00662e-05
6.00537e-05
5.9963e-05
5.99764e-05
6.00516e-05
6.01449e-05
6.00838e-05
5.99868e-05
5.99612e-05
5.99454e-05
5.99706e-05
6.00437e-05
6.02143e-05
6.02278e-05
5.96664e-05
5.94184e-05
6.05419e-05
6.16861e-05
6.06981e-05
5.82042e-05
5.75487e-05
6.00543e-05
6.25833e-05
6.22457e-05
5.97956e-05
5.82989e-05
6.17277e-05
6.7064e-05
6.30391e-05
5.09581e-05
4.56143e-05
4.83745e-05
4.52666e-05
2.88433e-05
1.36043e-05
4.12305e-05
0.000110439
0.000178808
0.000204894
0.000446111
0.00337575
0.0061097
0.00785689
0.00891726
0.00944883
0.0095777
0.00941522
0.00905949
0.00859195
0.00807469
0.00755152
0.00705235
0.00659758
0.00620408
0.00587441
0.00564917
0.00536678
6.00003e-05
6.00111e-05
6.00103e-05
5.99963e-05
6.0007e-05
6.003e-05
6.00198e-05
5.99727e-05
5.99542e-05
6.00193e-05
6.00581e-05
5.99937e-05
5.99762e-05
5.99899e-05
6.00969e-05
6.01114e-05
6.0045e-05
6.00147e-05
5.99724e-05
5.99332e-05
5.9945e-05
6.0097e-05
6.03508e-05
6.00659e-05
5.92926e-05
5.95201e-05
6.10303e-05
6.17597e-05
6.0139e-05
5.7887e-05
5.80569e-05
6.04007e-05
6.20027e-05
6.14395e-05
5.92364e-05
5.93504e-05
6.54157e-05
6.96429e-05
6.32035e-05
5.4062e-05
5.21743e-05
5.12837e-05
3.69865e-05
5.89482e-06
6.44404e-07
4.02659e-05
0.00011958
0.000195281
0.000313697
0.0025128
0.00557525
0.00752531
0.00874675
0.00940673
0.00963448
0.00954161
0.00922841
0.00878174
0.00827126
0.00774782
0.0072459
0.00678848
0.00639083
0.00606536
0.00580979
0.00565726
0.00544446
6.00043e-05
6.00058e-05
6.00118e-05
6.00012e-05
5.99983e-05
6.00225e-05
6.00349e-05
6.0005e-05
5.99616e-05
5.99846e-05
6.00331e-05
6.00087e-05
5.99906e-05
5.99769e-05
6.00262e-05
6.01033e-05
6.00605e-05
6.00563e-05
6.00341e-05
5.99619e-05
5.99028e-05
5.99334e-05
6.02418e-05
6.0406e-05
5.9725e-05
5.90522e-05
5.98199e-05
6.13981e-05
6.15369e-05
5.96103e-05
5.80005e-05
5.86467e-05
6.03694e-05
6.1482e-05
6.05758e-05
5.84366e-05
6.10447e-05
6.86773e-05
7.066e-05
6.45603e-05
6.04828e-05
6.17374e-05
5.64731e-05
2.81586e-05
2.02991e-06
9.29984e-07
4.12758e-05
0.000127647
0.000243081
0.00171509
0.0050026
0.0071519
0.00853736
0.00933167
0.00966638
0.00965292
0.00939173
0.00897294
0.00847261
0.00794927
0.00744368
0.00698219
0.0065816
0.0062521
0.00600098
0.00581844
0.00573655
0.00559288
6.00078e-05
6.00009e-05
6.00084e-05
6.00051e-05
5.99938e-05
6.00081e-05
6.00331e-05
6.00277e-05
5.99881e-05
5.99767e-05
6.00069e-05
6.00069e-05
5.9995e-05
5.99956e-05
5.9991e-05
6.00603e-05
6.0054e-05
6.00502e-05
6.00766e-05
6.00294e-05
5.99392e-05
5.98468e-05
6.00003e-05
6.04405e-05
6.03035e-05
5.93575e-05
5.90275e-05
6.0204e-05
6.15737e-05
6.11661e-05
5.93812e-05
5.84672e-05
5.89726e-05
6.0267e-05
6.10647e-05
5.90731e-05
5.74684e-05
6.25694e-05
6.96608e-05
7.00471e-05
6.73864e-05
7.01679e-05
7.53586e-05
6.458e-05
2.986e-05
7.73866e-07
7.39753e-07
4.19921e-05
0.000145439
0.00106426
0.00437307
0.0067446
0.00829114
0.009222
0.00966985
0.00974458
0.00954535
0.0091632
0.00867861
0.0081572
0.00764716
0.00718011
0.00677502
0.00644274
0.00618794
0.00601028
0.00589859
0.00588701
0.00580631
6.00086e-05
5.99991e-05
6.00045e-05
6.00075e-05
5.9995e-05
5.99948e-05
6.00192e-05
6.00332e-05
6.00123e-05
5.99884e-05
5.99974e-05
6.00015e-05
5.99852e-05
6.0013e-05
5.99955e-05
6.00295e-05
6.00344e-05
6.00214e-05
6.00641e-05
6.00826e-05
6.00218e-05
5.98791e-05
5.98173e-05
6.0195e-05
6.05865e-05
6.00564e-05
5.90965e-05
5.92018e-05
6.05824e-05
6.15376e-05
6.08204e-05
5.95416e-05
5.88577e-05
5.90671e-05
6.04253e-05
6.02244e-05
5.68046e-05
5.65568e-05
6.27852e-05
6.80495e-05
6.87344e-05
7.19376e-05
8.33879e-05
9.34031e-05
7.45974e-05
3.37513e-05
8.35755e-07
6.877e-07
4.42679e-05
0.000538916
0.00362676
0.00630588
0.00801463
0.00907853
0.00964219
0.00981226
0.00968444
0.00934871
0.00888761
0.00837223
0.00785817
0.00738388
0.00697248
0.00663589
0.00637875
0.00619791
0.00609149
0.00605004
0.00610252
0.0060756
6.00067e-05
6.00002e-05
6.00026e-05
6.00084e-05
6.00009e-05