/*--------------------------------*- C++ -*----------------------------------*\
  =========                 |
  \\      /  F ield         | OpenFOAM: The Open Source CFD Toolbox
   \\    /   O peration     | Website:  https://openfoam.org
    \\  /    A nd           | Version:  dev
     \\/     M anipulation  |
\*---------------------------------------------------------------------------*/
FoamFile
{
    version     2.0;
    format      ascii;
    class       surfaceScalarField;
    location    "200";
    object      phi;
}
// * * * * * * * * * * * * * * * * * * * * * * * * * * * * * * * * * * * * * //

dimensions      [0 3 -1 0 0 0 0];

internalField   nonuniform List<scalar> 
58294
(
-0.473127
0.000104728
-0.473134
9.51292e-05
-0.429565
9.37455e-05
-0.473139
8.76746e-05
-0.429558
8.79826e-05
-0.389791
9.42529e-05
-0.473144
8.21494e-05
-0.429554
8.28075e-05
-0.389789
8.61898e-05
-0.353845
8.31195e-05
-0.47315
7.72292e-05
-0.42955
7.79891e-05
-0.389787
8.03403e-05
-0.353837
7.83929e-05
-0.321114
7.79937e-05
-0.473156
7.27949e-05
-0.429546
7.37873e-05
-0.389785
7.61926e-05
-0.353831
7.42563e-05
-0.321108
7.23148e-05
-0.291454
6.79732e-05
-0.473161
6.85635e-05
-0.429543
6.9879e-05
-0.389784
7.2621e-05
-0.353826
7.09641e-05
-0.321102
6.84373e-05
-0.291446
6.44681e-05
-0.264505
6.05239e-05
-0.473168
6.45294e-05
-0.429541
6.62324e-05
-0.389783
6.94422e-05
-0.353822
6.82672e-05
-0.321097
6.60161e-05
-0.291439
6.17142e-05
-0.264497
5.70219e-05
-0.24006
5.15212e-05
-0.473174
6.05875e-05
-0.429539
6.26424e-05
-0.389783
6.63935e-05
-0.353818
6.59299e-05
-0.321093
6.42142e-05
-0.291433
6.01111e-05
-0.26449
5.48659e-05
-0.240052
4.93223e-05
-0.21786
4.36671e-05
-0.473181
5.6776e-05
-0.429538
5.91638e-05
-0.389784
6.3413e-05
-0.353816
6.36768e-05
-0.32109
6.27322e-05
-0.291428
5.91814e-05
-0.264484
5.40768e-05
-0.240045
4.79174e-05
-0.217852
4.18108e-05
-0.197716
3.5614e-05
-0.473187
5.30569e-05
-0.429537
5.56819e-05
-0.389785
6.03876e-05
-0.353814
6.14374e-05
-0.321088
6.13846e-05
-0.291424
5.86393e-05
-0.264479
5.39629e-05
-0.240039
4.77939e-05
-0.217845
4.09887e-05
-0.197709
3.45674e-05
-0.179433
2.82973e-05
-0.473194
4.94757e-05
-0.429536
5.22909e-05
-0.389787
5.73488e-05
-0.353812
5.90759e-05
-0.321086
5.99264e-05
-0.291421
5.81716e-05
-0.264475
5.42789e-05
-0.240033
4.84298e-05
-0.217839
4.1464e-05
-0.197702
3.42162e-05
-0.179426
2.7575e-05
-0.162839
2.12309e-05
-0.4732
4.60186e-05
-0.429535
4.89194e-05
-0.389789
5.42449e-05
-0.353812
5.66022e-05
-0.321086
5.83437e-05
-0.291419
5.76647e-05
-0.264472
5.47568e-05
-0.240029
4.95508e-05
-0.217833
4.27039e-05
-0.197696
3.51326e-05
-0.17942
2.76594e-05
-0.162832
2.10396e-05
-0.14778
1.48444e-05
-0.473207
4.27181e-05
-0.429535
4.56712e-05
-0.389791
5.11505e-05
-0.353811
5.39734e-05
-0.321086
5.64963e-05
-0.291418
5.68974e-05
-0.264469
5.51468e-05
-0.240025
5.08826e-05
-0.217828
4.45222e-05
-0.19769
3.68851e-05
-0.179414
2.89159e-05
-0.162826
2.13757e-05
-0.147774
1.48386e-05
-0.134114
8.81677e-06
-0.473213
3.95727e-05
-0.429535
4.24913e-05
-0.389794
4.80406e-05
-0.353811
5.12359e-05
-0.321086
5.44434e-05
-0.291417
5.58763e-05
-0.264468
5.53468e-05
-0.240022
5.22337e-05
-0.217824
4.66541e-05
-0.197685
3.92677e-05
-0.179408
3.09981e-05
-0.16282
2.28357e-05
-0.147768
1.54553e-05
-0.134108
9.16762e-06
-0.121708
3.48459e-06
-0.47322
3.65991e-05
-0.429535
3.94717e-05
-0.389796
4.49927e-05
-0.353812
4.84031e-05
-0.321087
5.2126e-05
-0.291417
5.44795e-05
-0.264467
5.51784e-05
-0.24002
5.33761e-05
-0.217821
4.88741e-05
-0.19768
4.20696e-05
-0.179402
3.38139e-05
-0.162814
2.5167e-05
-0.147762
1.70213e-05
-0.134103
9.86919e-06
-0.121703
3.85781e-06
-0.110451
-1.52938e-06
-0.473226
3.37936e-05
-0.429535
3.65614e-05
-0.389799
4.19939e-05
-0.353812
4.55262e-05
-0.321088
4.96422e-05
-0.291418
5.27731e-05
-0.264467
5.4627e-05
-0.240019
5.41987e-05
-0.217818
5.09865e-05
-0.197677
4.50893e-05
-0.179397
3.71566e-05
-0.162808
2.82548e-05
-0.147756
1.94182e-05
-0.134097
1.14395e-05
-0.121698
4.71829e-06
-0.110447
-9.24563e-07
-0.100236
-5.83699e-06
-0.473232
3.11662e-05
-0.429535
3.38311e-05
-0.389801
3.91085e-05
-0.353813
4.26425e-05
-0.32109
4.69772e-05
-0.291419
5.07219e-05
-0.264468
5.36125e-05
-0.240019
5.45684e-05
-0.217817
5.282e-05
-0.197674
4.81096e-05
-0.179393
4.08414e-05
-0.162803
3.1984e-05
-0.147751
2.26567e-05
-0.134091
1.38552e-05
-0.121693
6.21124e-06
-0.110442
-8.71076e-08
-0.100232
-5.36258e-06
-0.0909649
-9.90853e-06
-0.473238
2.87089e-05
-0.429535
3.12382e-05
-0.389804
3.63187e-05
-0.353814
3.97893e-05
-0.321091
4.424e-05
-0.29142
4.842e-05
-0.264469
5.21869e-05
-0.24002
5.44349e-05
-0.217817
5.42051e-05
-0.197672
5.09287e-05
-0.17939
4.46674e-05
-0.162799
3.61972e-05
-0.147745
2.66211e-05
-0.134086
1.70942e-05
-0.121688
8.48789e-06
-0.110437
1.26762e-06
-0.100227
-4.43588e-06
-0.090961
-9.31034e-06
-0.0825517
-1.32742e-05
-0.473244
2.64238e-05
-0.429535
2.88302e-05
-0.389806
3.36762e-05
-0.353814
3.7004e-05
-0.321093
4.1432e-05
-0.291422
4.58887e-05
-0.264471
5.03407e-05
-0.240021
5.37626e-05
-0.217817
5.50685e-05
-0.197671
5.33947e-05
-0.179387
4.84393e-05
-0.162795
4.07018e-05
-0.14774
3.11964e-05
-0.13408
2.11526e-05
-0.121682
1.16456e-05
-0.110432
3.40235e-06
-0.100223
-3.28172e-06
-0.0909571
-8.4593e-06
-0.0825482
-1.29507e-05
-0.0749096
-1.64784e-05
-0.473249
2.43011e-05
-0.429536
2.6566e-05
-0.389809
3.11567e-05
-0.353815
3.43123e-05
-0.321095
3.86451e-05
-0.291424
4.32212e-05
-0.264474
4.81733e-05
-0.240024
5.25728e-05
-0.217819
5.53166e-05
-0.197671
5.53235e-05
-0.179386
5.19334e-05
-0.162792
4.5295e-05
-0.147736
3.62233e-05
-0.134075
2.59432e-05
-0.121677
1.56695e-05
-0.110427
6.36147e-06
-0.100218
-1.41826e-06
-0.0909529
-7.53163e-06
-0.0825446
-1.20388e-05
-0.0749064
-1.6138e-05
-0.0679825
-1.89934e-05
-0.473254
2.23352e-05
-0.429536
2.44783e-05
-0.389811
2.87965e-05
-0.353815
3.17387e-05
-0.321096
3.58882e-05
-0.291425
4.04571e-05
-0.264476
4.57155e-05
-0.240026
5.09032e-05
-0.217821
5.49486e-05
-0.197673
5.66469e-05
-0.179385
5.50023e-05
-0.162789
4.9785e-05
-0.147732
4.15198e-05
-0.13407
3.13301e-05
-0.121671
2.05225e-05
-0.110421
1.02482e-05
-0.100213
1.3023e-06
-0.0909484
-5.90409e-06
-0.0825407
-1.13881e-05
-0.0749032
-1.53222e-05
-0.0679797
-1.90621e-05
-0.0616888
-2.14368e-05
-0.473259
2.05209e-05
-0.429536
2.25265e-05
-0.389813
2.65702e-05
-0.353816
2.92932e-05
-0.321098
3.32243e-05
-0.291427
3.76778e-05
-0.264479
4.3075e-05
-0.240029
4.88232e-05
-0.217824
5.39705e-05
-0.197675
5.72595e-05
-0.179386
5.74606e-05
-0.162788
5.39403e-05
-0.147729
4.686e-05
-0.134066
3.71484e-05
-0.121666
2.61125e-05
-0.110416
1.5048e-05
-0.100208
4.96229e-06
-0.0909436
-3.50658e-06
-0.0825366
-1.01007e-05
-0.0748997
-1.49555e-05
-0.0679768
-1.81793e-05
-0.0616863
-2.15988e-05
-0.0559826
-2.32116e-05
-0.473264
1.88453e-05
-0.429537
2.07377e-05
-0.389815
2.44979e-05
-0.353816
2.69908e-05
-0.321099
3.0656e-05
-0.291429
3.49169e-05
-0.264481
4.03019e-05
-0.240033
4.64075e-05
-0.217828
5.24359e-05
-0.197678
5.71785e-05
-0.179388
5.92216e-05
-0.162788
5.76009e-05
-0.147727
5.20552e-05
-0.134062
4.32179e-05
-0.121661
3.22995e-05
-0.11041
2.06894e-05
-0.100202
9.59125e-06
-0.0909385
-1.36925e-07
-0.082532
-8.02738e-06
-0.0748958
-1.39492e-05
-0.0679736
-1.81391e-05
-0.0616837
-2.08022e-05
-0.0559804
-2.39143e-05
-0.0508037
-2.49603e-05
-0.473269
1.73002e-05
-0.429537
1.90708e-05
-0.389817
2.25608e-05
-0.353817
2.48274e-05
-0.3211
2.82229e-05
-0.29143
3.22303e-05
-0.264484
3.74857e-05
-0.240036
4.37498e-05
-0.217832
5.04162e-05
-0.197682
5.63887e-05
-0.179391
6.01993e-05
-0.16279
6.05786e-05
-0.147726
5.68652e-05
-0.13406
4.93003e-05
-0.121657
3.88986e-05
-0.110405
2.70645e-05
-0.100197
1.51646e-05
-0.0909331
4.25009e-06
-0.0825272
-4.99532e-06
-0.0748916
-1.22613e-05
-0.0679701
-1.75068e-05
-0.0616808
-2.10687e-05
-0.0559781
-2.30516e-05
-0.0508017
-2.58678e-05
-0.0461005
-2.60868e-05
-0.473273
1.58793e-05
-0.429537
1.75421e-05
-0.389818
2.07661e-05
-0.353817
2.28155e-05
-0.321102
2.59178e-05
-0.291432
2.96409e-05
-0.264486
3.46696e-05
-0.24004
4.09294e-05
-0.217836
4.80045e-05
-0.197687
5.49722e-05
-0.179395
6.03818e-05
-0.162792
6.27836e-05
-0.147727
6.11121e-05
-0.134058
5.51954e-05
-0.121653
4.57303e-05
-0.1104
3.40391e-05
-0.100191
2.15898e-05
-0.0909276
9.63893e-06
-0.082522
-9.26884e-07
-0.074887
-9.59843e-06
-0.0679662
-1.61857e-05
-0.0616776
-2.07247e-05
-0.0559755
-2.36662e-05
-0.0507998
-2.50958e-05
-0.0460987
-2.76409e-05
-0.0418342
-2.72604e-05
-0.473277
1.45675e-05
-0.429538
1.61243e-05
-0.38982
1.90933e-05
-0.353817
2.09402e-05
-0.321102
2.37683e-05
-0.291433
2.71774e-05
-0.264489
3.19186e-05
-0.240043
3.80304e-05
-0.217841
4.52961e-05
-0.197692
5.29904e-05
-0.1794
5.97809e-05
-0.162796
6.41162e-05
-0.147729
6.46216e-05
-0.134057
6.06572e-05
-0.121651
5.25485e-05
-0.110396
4.14119e-05
-0.100186
2.87448e-05
-0.090922
1.59736e-05
-0.0825166
4.21242e-06
-0.0748821
-5.87183e-06
-0.0679618
-1.39133e-05
-0.061674
-1.98083e-05
-0.0559726
-2.36874e-05
-0.0507974
-2.604e-05
-0.046097
-2.67815e-05
-0.0418327
-2.91093e-05
-0.0379625
-2.78747e-05
-0.473281
1.33597e-05
-0.429538
1.48208e-05
-0.389822
1.75526e-05
-0.353817
1.92049e-05
-0.321103
2.17577e-05
-0.291434
2.48573e-05
-0.264491
2.92565e-05
-0.240046
3.51202e-05
-0.217845
4.23876e-05
-0.197697
5.05587e-05
-0.179406
5.84642e-05
-0.162801
6.45702e-05
-0.147732
6.72642e-05
-0.134058
6.55009e-05
-0.121649
5.91365e-05
-0.110392
4.89973e-05
-0.100181
3.64939e-05
-0.0909164
2.3177e-05
-0.082511
1.03602e-05
-0.0748768
-1.05731e-06
-0.0679571
-1.05802e-05
-0.06167
-1.79377e-05
-0.0559693
-2.31325e-05
-0.0507948
-2.6339e-05
-0.046095
-2.80964e-05
-0.0418312
-2.83167e-05
-0.0379612
-3.04444e-05
-0.0344481
-2.85895e-05
-0.473285
1.22453e-05
-0.429538
1.36107e-05
-0.389823
1.61185e-05
-0.353818
1.76016e-05
-0.321104
1.98975e-05
-0.291435
2.2686e-05
-0.264493
2.673e-05
-0.240049
3.22553e-05
-0.217849
3.93709e-05
-0.197702
4.77706e-05
-0.179412
5.65127e-05
-0.162807
6.41527e-05
-0.147736
6.89653e-05
-0.134061
6.95376e-05
-0.121649
6.52608e-05
-0.11039
5.6544e-05
-0.100177
4.46321e-05
-0.090911
3.11025e-05
-0.0825053
1.74561e-05
-0.0748713
4.81719e-06
-0.0679521
-6.10727e-06
-0.0616656
-1.49896e-05
-0.0559655
-2.16563e-05
-0.0507917
-2.61758e-05
-0.0460926
-2.87527e-05
-0.0418294
-2.99641e-05
-0.03796
-2.95397e-05
-0.034447
-3.1521e-05
-0.0312589
-2.88002e-05
-0.473289
1.12172e-05
-0.429538
1.24981e-05
-0.389824
1.4799e-05
-0.353818
1.61222e-05
-0.321105
1.81784e-05
-0.291436
2.06679e-05
-0.264494
2.43424e-05
-0.240052
2.94897e-05
-0.217853
3.63198e-05
-0.197708
4.47462e-05
-0.179418
5.40384e-05
-0.162813
6.29364e-05
-0.147742
6.96907e-05
-0.134064
7.26344e-05
-0.12165
7.06972e-05
-0.110388
6.38323e-05
-0.100173
5.29616e-05
-0.090906
3.96157e-05
-0.0824996
2.54152e-05
-0.0748655
1.17212e-05
-0.0679467
-5.56744e-07
-0.0616608
-1.09091e-05
-0.0559614
-1.91244e-05
-0.0507883
-2.50933e-05
-0.0460898
-2.89378e-05
-0.0418273
-3.08805e-05
-0.0379584
-3.15613e-05
-0.034446
-3.06475e-05
-0.031258
-3.25062e-05
-0.0283653
-2.91661e-05
-0.473292
1.02695e-05
-0.429539
1.14643e-05
-0.389826
1.35761e-05
-0.353818
1.47597e-05
-0.321105
1.65959e-05
-0.291436
1.88068e-05
-0.264496
2.21157e-05
-0.240054
2.68489e-05
-0.217857
3.33135e-05
-0.197713
4.15719e-05
-0.179424
5.11569e-05
-0.16282
6.10037e-05
-0.147748
6.94642e-05
-0.134069
7.47061e-05
-0.121653
7.52739e-05
-0.110388
7.06105e-05
-0.10017
6.12432e-05
-0.0909016
4.85083e-05
-0.0824941
3.40957e-05
-0.0748597
1.95574e-05
-0.0679411
6.05361e-06
-0.0616556
-5.72607e-06
-0.0559569
-1.54154e-05
-0.0507845
-2.29417e-05
-0.0460867
-2.82345e-05
-0.0418248
-3.14318e-05
-0.0379565
-3.28111e-05
-0.0344446
-3.30074e-05
-0.0312571
-3.14935e-05
-0.0283644
-3.32846e-05
-0.0257391
-2.91227e-05
-0.473295
9.39262e-06
-0.429539
1.0514e-05
-0.389826
1.24522e-05
-0.353817
1.35088e-05
-0.321105
1.51417e-05
-0.291437
1.70923e-05
-0.264497
2.00528e-05
-0.240057
2.43611e-05
-0.217861
3.03927e-05
-0.197718
3.83574e-05
-0.179431
4.79821e-05
-0.162827
5.84813e-05
-0.147756
6.8344e-05
-0.134075
7.57163e-05
-0.121657
7.88318e-05
-0.11039
7.66573e-05
-0.100169
6.92241e-05
-0.0908979
5.75834e-05
-0.0824889
4.3356e-05
-0.0748538
2.82548e-05
-0.0679352
1.3676e-05
-0.0616501
5.56574e-07
-0.055952
-1.06169e-05
-0.0507802
-1.96372e-05
-0.0460831
-2.6492e-05
-0.0418219
-3.11046e-05
-0.0379542
-3.36809e-05
-0.0344429
-3.45062e-05
-0.0312559
-3.42419e-05
-0.0283637
-3.2278e-05
-0.0257384
-3.40354e-05
-0.0233564
-2.9272e-05
-0.473298
8.58437e-06
-0.42954
9.62852e-06
-0.389828
1.14142e-05
-0.353817
1.23597e-05
-0.321106
1.38113e-05
-0.291437
1.55232e-05
-0.264498
1.81525e-05
-0.240059
2.20436e-05
-0.217864
2.76049e-05
-0.197723
3.51598e-05
-0.179437
4.46392e-05
-0.162835
5.54799e-05
-0.147764
6.64339e-05
-0.134083
7.56822e-05
-0.121662
8.12885e-05
-0.110393
8.17756e-05
-0.100169
7.66653e-05
-0.0908953
6.65874e-05
-0.0824843
5.30009e-05
-0.0748481
3.76723e-05
-0.0679292
2.22314e-05
-0.0616443
7.86467e-06
-0.0559467
-4.72254e-06
-0.0507756
-1.52336e-05
-0.0460792
-2.35468e-05
-0.0418187
-2.97242e-05
-0.0379516
-3.37037e-05
-0.0344408
-3.57117e-05
-0.0312543
-3.6065e-05
-0.0283626
-3.53693e-05
-0.0257378
-3.28601e-05
-0.0233557
-3.46303e-05
-0.021193
-2.90727e-05
-0.473301
7.83938e-06
-0.42954
8.81391e-06
-0.389828
1.04579e-05
-0.353817
1.13083e-05
-0.321106
1.25934e-05
-0.291438
1.40902e-05
-0.264499
1.64121e-05
-0.24006
1.98979e-05
-0.217867
2.49796e-05
-0.197727
3.20521e-05
-0.179443
4.12141e-05
-0.162842
5.21529e-05
-0.147772
6.38443e-05
-0.134091
7.46704e-05
-0.121669
8.25901e-05
-0.110397
8.58098e-05
-0.100171
8.33207e-05
-0.0908939
7.52695e-05
-0.0824806
6.28079e-05
-0.0748428
4.76738e-05
-0.0679231
3.16455e-05
-0.0616382
1.61803e-05
-0.0559411
2.22811e-06
-0.0507706
-9.72116e-06
-0.0460749
-1.95309e-05
-0.0418151
-2.71731e-05
-0.0379486
-3.27118e-05
-0.0344385
-3.60791e-05
-0.0312525
-3.7558e-05
-0.0283613
-3.74443e-05
-0.0257368
-3.63237e-05
-0.0233552
-3.34248e-05
-0.0211924
-3.52275e-05
-0.0192307
-2.90861e-05
-0.473303
7.15232e-06
-0.42954
8.05874e-06
-0.389829
9.57545e-06
-0.353817
1.03409e-05
-0.321106
1.14835e-05
-0.291438
1.27854e-05
-0.2645
1.48266e-05
-0.240062
1.79291e-05
-0.217869
2.25294e-05
-0.197731
2.908e-05
-0.179449
3.78e-05
-0.16285
4.8599e-05
-0.147781
6.07334e-05
-0.1341
7.27714e-05
-0.121677
8.2766e-05
-0.110403
8.86554e-05
-0.100174
8.89902e-05
-0.0908939
8.33653e-05
-0.0824778
7.25354e-05
-0.0748381
5.80565e-05
-0.0679172
4.17937e-05
-0.061632
2.54305e-05
-0.0559351
1.02013e-05
-0.0507652
-3.18175e-06
-0.0460702
-1.44293e-05
-0.041811
-2.35406e-05
-0.0379453
-3.04939e-05
-0.0344357
-3.54124e-05
-0.0312503
-3.82297e-05
-0.0283596
-3.92383e-05
-0.0257356
-3.87155e-05
-0.0233544
-3.71883e-05
-0.021192
-3.38248e-05
-0.0192301
-3.56953e-05
-0.0174493
-2.88215e-05
-0.473305
6.52016e-06
-0.42954
7.36447e-06
-0.38983
8.76563e-06
-0.353817
9.45559e-06
-0.321106
1.04666e-05
-0.291438
1.16008e-05
-0.2645
1.3386e-05
-0.240063
1.61331e-05
-0.217872
2.02673e-05
-0.197735
2.62726e-05
-0.179454
3.44707e-05
-0.162857
4.49443e-05
-0.147789
5.7218e-05
-0.134109
7.01379e-05
-0.121686
8.18574e-05
-0.110411
9.02691e-05
-0.100179
9.34995e-05
-0.0908956
9.06319e-05
-0.0824764
8.19075e-05
-0.0748341
6.85988e-05
-0.0679117
5.25236e-05
-0.0616258
3.55515e-05
-0.0559289
1.91798e-05
-0.0507594
4.40031e-06
-0.0460651
-8.30206e-06
-0.0418067
-1.88156e-05
-0.0379416
-2.72269e-05
-0.0344327
-3.3559e-05
-0.0312478
-3.7908e-05
-0.0283576
-4.02107e-05
-0.025734
-4.0777e-05
-0.0233533
-3.98285e-05
-0.0211913
-3.79002e-05
-0.0192298
-3.42379e-05
-0.0174488
-3.61951e-05
-0.0158331
-2.87789e-05
-0.473307
5.9354e-06
-0.429541
6.72455e-06
-0.389831
8.01949e-06
-0.353817
8.64417e-06
-0.321106
9.54035e-06
-0.291438
1.05227e-05
-0.264501
1.20837e-05
-0.240064
1.45028e-05
-0.217874
1.81949e-05
-0.197738
2.36542e-05
-0.179459
3.1271e-05
-0.162864
4.12845e-05
-0.147798
5.34445e-05
-0.134119
6.6889e-05
-0.121696
8.00036e-05
-0.11042
9.06496e-05
-0.100185
9.67506e-05
-0.0908989
9.68442e-05
-0.0824764
9.06552e-05
-0.0748313
7.90337e-05
-0.0679068
6.36442e-05
-0.0616197
4.64206e-05
-0.0559224
2.91141e-05
-0.0507533
1.30045e-05
-0.0460595
-1.16086e-06
-0.0418018
-1.31193e-05
-0.0379375
-2.28937e-05
-0.0344293
-3.06412e-05
-0.0312451
-3.63431e-05
-0.0283553
-4.01606e-05
-0.0257322
-4.20156e-05
-0.0233519
-4.21719e-05
-0.0211903
-4.08344e-05
-0.0192292
-3.85409e-05
-0.0174485
-3.45389e-05
-0.0158326
-3.66035e-05
-0.0143662
-2.85334e-05
-0.47331
5.39733e-06
-0.429541
6.13619e-06
-0.389831
7.33814e-06
-0.353817
7.90171e-06
-0.321106
8.69514e-06
-0.291438
9.54569e-06
-0.264501
1.09035e-05
-0.240065
1.30308e-05
-0.217876
1.63085e-05
-0.197742
2.12371e-05
-0.179464
2.82462e-05
-0.16287
3.76921e-05
-0.147806
4.95394e-05
-0.134129
6.31883e-05
-0.121707
7.73035e-05
-0.110429
8.98876e-05
-0.100193
9.86683e-05
-0.090904
0.000101839
-0.0824781
9.85157e-05
-0.0748297
8.90849e-05
-0.0679026
7.49068e-05
-0.0616139
5.78864e-05
-0.0559159
3.99363e-05
-0.0507468
2.26344e-05
-0.0460535
7.01297e-06
-0.0417966
-6.42608e-06
-0.037933
-1.76029e-05
-0.0344255
-2.66472e-05
-0.0312419
-3.37509e-05
-0.0283528
-3.89166e-05
-0.0257301
-4.22661e-05
-0.0233502
-4.36893e-05
-0.0211891
-4.34357e-05
-0.0192283
-4.17007e-05
-0.017448
-3.90778e-05
-0.0158324
-3.48845e-05
-0.0143657
-3.70698e-05
-0.0130348
-2.8512e-05
-0.473311
4.90645e-06
-0.429541
5.59523e-06
-0.389832
6.71012e-06
-0.353817
7.2237e-06
-0.321106
7.92509e-06
-0.291438
8.66053e-06
-0.264501
9.84032e-06
-0.240066
1.17011e-05
-0.217877
1.4603e-05
-0.197744
1.90227e-05
-0.179468
2.54205e-05
-0.162876
3.42328e-05
-0.147814
4.55981e-05
-0.134138
5.91855e-05
-0.121717
7.3931e-05
-0.11044
8.80592e-05
-0.100203
9.93002e-05
-0.0909108
0.000105481
-0.0824815
0.000105272
-0.0748296
9.84573e-05
-0.0678996
8.60345e-05
-0.0616088
6.97299e-05
-0.0559096
5.15368e-05
-0.0507401
3.32548e-05
-0.0460471
1.62375e-05
-0.0417908
1.27026e-06
-0.0379281
-1.13684e-05
-0.0344214
-2.17615e-05
-0.0312385
-3.01099e-05
-0.0283499
-3.66307e-05
-0.0257278
-4.1265e-05
-0.0233483
-4.41761e-05
-0.0211876
-4.52024e-05
-0.0192272
-4.45563e-05
-0.0174472
-4.24788e-05
-0.0158319
-3.95728e-05
-0.0143655
-3.51568e-05
-0.0130344
-3.74807e-05
-0.0118267
-2.83275e-05
-0.473313
4.45418e-06
-0.429541
5.10486e-06
-0.389832
6.13579e-06
-0.353817
6.60145e-06
-0.321106
7.22446e-06
-0.291438
7.8588e-06
-0.264502
8.88237e-06
-0.240067
1.0507e-05
-0.217878
1.30621e-05
-0.197747
1.70118e-05
-0.179472
2.28078e-05
-0.162882
3.09527e-05
-0.147821
4.1717e-05
-0.134148
5.50017e-05
-0.121728
7.0046e-05
-0.110452
8.53193e-05
-0.100213
9.86656e-05
-0.0909193
0.000107749
-0.0824868
0.000110726
-0.0748313
0.000106899
-0.0678979
9.67269e-05
-0.0616044
8.16941e-05
-0.0559036
6.37327e-05
-0.0507334
4.48023e-05
-0.0460404
2.6526e-05
-0.0417846
1.00255e-05
-0.0379227
-4.16569e-06
-0.0344168
-1.59677e-05
-0.0312346
-2.55913e-05
-0.0283467
-3.32823e-05
-0.0257251
-3.92596e-05
-0.0233461
-4.34623e-05
-0.0211858
-4.5968e-05
-0.0192258
-4.65833e-05
-0.0174462
-4.55583e-05
-0.0158312
-4.31486e-05
-0.014365
-4.00008e-05
-0.0130341
-3.55022e-05
-0.0118263
-3.79393e-05
-0.0107306
-2.82662e-05
-0.473315
4.04538e-06
-0.429542
4.65214e-06
-0.389833
5.61119e-06
-0.353816
6.0314e-06
-0.321106
6.584e-06
-0.291438
7.13447e-06
-0.264502
8.02034e-06
-0.240067
9.43594e-06
-0.21788
1.16797e-05
-0.197749
1.51886e-05
-0.179475
2.04157e-05
-0.162887
2.78794e-05
-0.147828
3.79648e-05
-0.134157
5.07631e-05
-0.121739
6.57931e-05
-0.110463
8.18348e-05
-0.100225
9.68966e-05
-0.0909292
0.000108609
-0.0824938
0.000114799
-0.0748347
0.00011416
-0.0678977
0.000106698
-0.0616012
9.34684e-05
-0.0558982
7.62852e-05
-0.0507268
5.71366e-05
-0.0460335
3.78657e-05
-0.041778
1.9888e-05
-0.0379167
4.0728e-06
-0.0344117
-9.26529e-06
-0.0312304
-2.02245e-05
-0.0283432
-2.91231e-05
-0.0257222
-3.62187e-05
-0.0233437
-4.17228e-05
-0.0211838
-4.54692e-05
-0.0192242
-4.75586e-05
-0.017445
-4.7796e-05
-0.0158303
-4.643e-05
-0.0143644
-4.37428e-05
-0.0130336
-4.04196e-05
-0.0118259
-3.58189e-05
-0.0107302
-3.82842e-05
-0.00973559
-2.80214e-05
-0.473316
3.67102e-06
-0.429541
4.24419e-06
-0.389833
5.1257e-06
-0.353816
5.51184e-06
-0.321106
5.99973e-06
-0.291438
6.47647e-06
-0.264502
7.24617e-06
-0.240068
8.47652e-06
-0.217881
1.04419e-05
-0.197751
1.35496e-05
-0.179478
1.82338e-05
-0.162891
2.50356e-05
-0.147835
3.43921e-05
-0.134165
4.65676e-05
-0.12175
6.13251e-05
-0.110475
7.77551e-05
-0.100237
9.41377e-05
-0.0909405
0.00010814
-0.0825026
0.000117385
-0.07484
0.000120103
-0.0678992
0.000115664
-0.0615992
0.000104759
-0.0558936
8.88977e-05
-0.0507205
7.00519e-05
-0.0460265
5.01575e-05
-0.041771
3.08901e-05
-0.0379103
1.34324e-05
-0.034406
-1.56684e-06
-0.0312256
-1.40111e-05
-0.0283393
-2.41509e-05
-0.025719
-3.23726e-05
-0.0233409
-3.89255e-05
-0.0211815
-4.39761e-05
-0.0192224
-4.73236e-05
-0.0174435
-4.90132e-05
-0.0158293
-4.88826e-05
-0.0143637
-4.71956e-05
-0.0130331
-4.42649e-05
-0.0118255
-4.08203e-05
-0.0107299
-3.61526e-05
-0.00973527
-3.85851e-05
-0.0088321
-2.78562e-05
-0.473317
3.33086e-06
-0.429542
3.8681e-06
-0.389834
4.68301e-06
-0.353816
5.02985e-06
-0.321106
5.46993e-06
-0.291437
5.88051e-06
-0.264502
6.5476e-06
-0.240068
7.61931e-06
-0.217882
9.33604e-06
-0.197752
1.20802e-05
-0.179481
1.62619e-05
-0.162895
2.24167e-05
-0.147841
3.10392e-05
-0.134174
4.24916e-05
-0.12176
5.6772e-05
-0.110487
7.32597e-05
-0.10025
9.05377e-05
-0.0909528
0.000106456
-0.082513
0.000118508
-0.0748472
0.000124561
-0.0679025
0.000123444
-0.0615988
0.000115254
-0.0558901
0.00010126
-0.0507149
8.32553e-05
-0.0460197
6.32269e-05
-0.0417638
4.29838e-05
-0.0379034
2.40018e-05
-0.0343998
7.24726e-06
-0.0312204
-6.85577e-06
-0.0283349
-1.84009e-05
-0.0257153
-2.77658e-05
-0.0233379
-3.53845e-05
-0.021179
-4.14491e-05
-0.0192203
-4.60711e-05
-0.0174419
-4.89646e-05
-0.015828
-5.02631e-05
-0.0143628
-4.98047e-05
-0.0130325
-4.78453e-05
-0.0118251
-4.47445e-05
-0.0107295
-4.11887e-05
-0.00973506
-3.6375e-05
-0.00883187
-3.87494e-05
-0.00801236
-2.66472e-05
-0.473319
3.023e-06
-0.429542
3.52523e-06
-0.389834
4.27233e-06
-0.353816
4.59111e-06
-0.321106
4.98178e-06
-0.291437
5.34361e-06
-0.264502
5.91888e-06
-0.240068
6.84999e-06
-0.217882
8.3511e-06
-0.197754
1.07673e-05
-0.179483
1.44876e-05
-0.162899
2.00318e-05
-0.147846
2.7914e-05
-0.134181
3.86006e-05
-0.12177
5.22384e-05
-0.110499
6.85028e-05
-0.100263
8.62828e-05
-0.0909659
0.000103679
-0.0825247
0.000118231
-0.0748562
0.000127495
-0.0679078
0.000129816
-0.0616001
0.000124741
-0.0558879
0.000113053
-0.0507101
9.644e-05
-0.0460132
7.68006e-05
-0.0417566
5.6033e-05
-0.0378962
3.57742e-05
-0.0343932
1.73057e-05
-0.0312145
1.37966e-06
-0.02833
-1.17798e-05
-0.0257113
-2.24513e-05
-0.0233346
-3.11064e-05
-0.0211762
-3.8173e-05
-0.019218
-4.37612e-05
-0.01744
-4.79319e-05
-0.0158265
-5.04387e-05
-0.0143617
-5.13778e-05
-0.0130317
-5.06057e-05
-0.0118245
-4.84278e-05
-0.0107291
-4.5168e-05
-0.00973478
-4.14612e-05
-0.00883173
-3.65544e-05
-0.00801297
-3.81139e-05
-0.0072599
-2.11786e-05
-0.47332
2.7422e-06
-0.429542
3.21169e-06
-0.389835
3.89388e-06
-0.353816
4.18363e-06
-0.321106
4.54037e-06
-0.291437
4.85273e-06
-0.264502
5.35606e-06
-0.240069
6.16156e-06
-0.217883
7.47071e-06
-0.197755
9.59863e-06
-0.179485
1.28975e-05
-0.162903
1.78715e-05
-0.147851
2.50382e-05
-0.134188
3.49189e-05
-0.121779
4.78212e-05
-0.11051
6.36217e-05
-0.100276
8.15506e-05
-0.0909796
9.99932e-05
-0.0825377
0.000116633
-0.0748669
0.000128904
-0.067915
0.000134681
-0.0616033
0.000132964
-0.0558872
0.000124047
-0.0507063
0.000109273
-0.0460073
9.05605e-05
-0.0417496
6.97769e-05
-0.0378888
4.86588e-05
-0.034386
2.86623e-05
-0.0312081
1.08853e-05
-0.0283245
-4.11913e-06
-0.0257067
-1.63326e-05
-0.0233309
-2.61835e-05
-0.0211731
-3.41987e-05
-0.0192154
-4.07598e-05
-0.0174379
-4.58745e-05
-0.0158249
-4.9611e-05
-0.0143604
-5.16972e-05
-0.0130308
-5.22851e-05
-0.0118238
-5.12698e-05
-0.0107286
-4.89298e-05
-0.00973447
-4.54757e-05
-0.00883156
-4.16269e-05
-0.00801285
-3.6685e-05
-0.00726583
-3.21354e-05
-0.00656118
-1.24642e-05
-0.473321
2.48468e-06
-0.429542
2.92318e-06
-0.389835
3.54655e-06
-0.353816
3.80962e-06
-0.321106
4.13365e-06
-0.291437
4.41166e-06
-0.264502
4.84498e-06
-0.240069
5.54867e-06
-0.217883
6.68639e-06
-0.197756
8.55568e-06
-0.179487
1.14796e-05
-0.162906
1.59253e-05
-0.147856
2.24101e-05
-0.134195
3.14871e-05
-0.121788
4.35647e-05
-0.110521
5.87445e-05
-0.100289
7.65015e-05
-0.0909937
9.5579e-05
-0.0825516
0.000113873
-0.074879
0.000128815
-0.067924
0.000137978
-0.0616084
0.000139773
-0.0558882
0.00013396
-0.0507038
0.000121518
-0.0460022
0.000104174
-0.041743
8.38956e-05
-0.0378814
6.24109e-05
-0.0343787
4.12661e-05
-0.0312012
2.1753e-05
-0.0283184
4.79926e-06
-0.0257016
-9.24556e-06
-0.0233267
-2.05398e-05
-0.0211696
-2.9642e-05
-0.0192125
-3.70702e-05
-0.0174356
-4.31181e-05
-0.015823
-4.77433e-05
-0.014359
-5.1047e-05
-0.0130297
-5.27812e-05
-0.0118231
-5.3071e-05
-0.010728
-5.18654e-05
-0.00973409
-4.93354e-05
-0.00883139
-4.56515e-05
-0.00801278
-4.17057e-05
-0.00726765
-3.48879e-05
-0.00657345
-1.98512e-05
-0.00591812
-3.77317e-06
-0.473322
2.24867e-06
-0.429543
2.65808e-06
-0.389835
3.22497e-06
-0.353816
3.46704e-06
-0.321106
3.76284e-06
-0.291437
4.00811e-06
-0.264502
4.38854e-06
-0.240069
4.99574e-06
-0.217884
5.9914e-06
-0.197757
7.62845e-06
-0.179489
1.02128e-05
-0.162908
1.4182e-05
-0.14786
2.00238e-05
-0.134201
2.83151e-05
-0.121796
3.95358e-05
-0.110532
5.39424e-05
-0.100301
7.12991e-05
-0.0910078
9.06167e-05
-0.0825661
0.000110123
-0.0748925
0.000127341
-0.0679349
0.000139664
-0.0616154
0.000145052
-0.0558911
0.000142621
-0.0507027
0.000132898
-0.0459981
0.000117401
-0.0417368
9.80409e-05
-0.0378742
7.66975e-05
-0.0343711
5.4895e-05
-0.0311939
3.39919e-05
-0.0283118
1.51348e-05
-0.0256959
-9.12082e-07
-0.0233219
-1.39881e-05
-0.0211658
-2.44262e-05
-0.0192093
-3.28446e-05
-0.0174329
-3.97051e-05
-0.0158209
-4.52409e-05
-0.0143573
-4.9397e-05
-0.0130285
-5.22984e-05
-0.0118222
-5.36596e-05
-0.0107274
-5.37093e-05
-0.00973361
-5.23448e-05
-0.00883116
-4.95806e-05
-0.00801271
-4.57145e-05
-0.00726857
-4.07795e-05
-0.00658158
-2.67642e-05
-0.00593138
-6.5571e-06
-0.00533253
3.9437e-06
-0.473323
2.02673e-06
-0.429543
2.4158e-06
-0.389835
2.93326e-06
-0.353816
3.15182e-06
-0.321106
3.42536e-06
-0.291437
3.64204e-06
-0.264502
3.97365e-06
-0.240069
4.50475e-06
-0.217884
5.36793e-06
-0.197758
6.80901e-06
-0.17949
9.08638e-06
-0.162911
1.2619e-05
-0.147864
1.78723e-05
-0.134206
2.54065e-05
-0.121803
3.57607e-05
-0.110541
4.93123e-05
-0.100313
6.60393e-05
-0.0910218
8.52958e-05
-0.0825811
0.000105565
-0.074907
0.000124624
-0.0679473
0.000139799
-0.0616245
0.000148692
-0.0558959
0.000149862
-0.0507033
0.000143217
-0.0459952
0.000129966
-0.0417314
0.000111973
-0.0378673
9.11605e-05
-0.0343636
6.92022e-05
-0.0311864
4.73948e-05
-0.0283047
2.69373e-05
-0.0256896
8.85809e-06
-0.0233166
-6.23871e-06
-0.0211614
-1.83889e-05
-0.0192057
-2.80353e-05
-0.01743
-3.58061e-05
-0.0158185
-4.20923e-05
-0.0143554
-4.71085e-05
-0.0130271
-5.08083e-05
-0.0118212
-5.33117e-05
-0.0107267
-5.44048e-05
-0.00973307
-5.4278e-05
-0.00883082
-5.27029e-05
-0.00801262
-4.96932e-05
-0.00726881
-4.54812e-05
-0.00658802
-3.43524e-05
-0.00594211
-1.60373e-05
-0.00534465
5.58207e-06
-0.00480227
1.00378e-05
-0.473323
1.82792e-06
-0.429543
2.19153e-06
-0.389836
2.66913e-06
-0.353816
2.86672e-06
-0.321106
3.11645e-06
-0.291437
3.31054e-06
-0.264502
3.59954e-06
-0.240069
4.06144e-06
-0.217885
4.81718e-06
-0.197759
6.07641e-06
-0.179492
8.09101e-06
-0.162913
1.12253e-05
-0.147867
1.59322e-05
-0.134211
2.27614e-05
-0.12181
3.22579e-05
-0.110551
4.49042e-05
-0.100325
6.08567e-05
-0.0910355
7.97384e-05
-0.0825962
0.000100405
-0.0749223
0.000120831
-0.0679612
0.000138474
-0.0616354
0.000150686
-0.0559027
0.000155525
-0.0507057
0.000152303
-0.0459937
0.000141699
-0.0417269
0.000125441
-0.0378609
0.000105549
-0.0343563
8.3798e-05
-0.0311788
6.16e-05
-0.0282973
4.00408e-05
-0.0256829
2.01912e-05
-0.0233107
2.96829e-06
-0.0211564
-1.11877e-05
-0.0192016
-2.24621e-05
-0.0174266
-3.13671e-05
-0.0158158
-3.8496e-05
-0.0143533
-4.42106e-05
-0.0130254
-4.87403e-05
-0.01182
-5.20091e-05
-0.0107258
-5.41663e-05
-0.00973247
-5.50123e-05
-0.00883041
-5.46922e-05
-0.00801244
-5.28883e-05
-0.00726888
-4.96328e-05
-0.00659194
-4.15501e-05
-0.00595309
-2.3369e-05
-0.00535514
-5.55747e-06
-0.00481219
1.55217e-05
-0.004324
1.45004e-05
-0.473324
1.64719e-06
-0.429543
1.98883e-06
-0.389836
2.43212e-06
-0.353815
2.60954e-06
-0.321106
2.83655e-06
-0.291437
3.0081e-06
-0.264502
3.26269e-06
-0.240069
3.66421e-06
-0.217885
4.32295e-06
-0.197759
5.43148e-06
-0.179493
7.20214e-06
-0.162915
9.9912e-06
-0.14787
1.41939e-05
-0.134215
2.03578e-05
-0.121816
2.90386e-05
-0.110559
4.07557e-05
-0.100336
5.58281e-05
-0.0910487
7.41156e-05
-0.0826112
9.4783e-05
-0.074938
0.00011617
-0.0679762
0.000135821
-0.0616479
0.000151066
-0.0559116
0.000159534
-0.0507102
0.00015994
-0.0459938
0.000152405
-0.0417235
0.00013828
-0.0378551
0.000119622
-0.0343491
9.84174e-05
-0.0311712
7.6189e-05
-0.0282898
5.40601e-05
-0.0256758
3.29374e-05
-0.0233043
1.37969e-05
-0.0211509
-2.5432e-06
-0.019197
-1.57909e-05
-0.0174229
-2.62461e-05
-0.0158127
-3.44258e-05
-0.0143509
-4.09128e-05
-0.0130236
-4.6072e-05
-0.0118186
-5.01244e-05
-0.0107249
-5.29872e-05
-0.00973179
-5.48422e-05
-0.00882994
-5.55069e-05
-0.00801218
-5.49793e-05
-0.00726884
-5.29585e-05
-0.00659398
-4.76134e-05
-0.00596309
-3.15531e-05
-0.00536647
-1.2054e-05
-0.00482123
3.49267e-06
-0.00433141
2.29405e-05
-0.00389357
1.73378e-05
-0.473325
1.48751e-06
-0.429543
1.80193e-06
-0.389836
2.21564e-06
-0.353815
2.37878e-06
-0.321106
2.58335e-06
-0.291436
2.73434e-06
-0.264502
2.95713e-06
-0.240069
3.30878e-06
-0.217885
3.88267e-06
-0.19776
4.85511e-06
-0.179494
6.42049e-06
-0.162916
8.88753e-06
-0.147873
1.26485e-05
-0.134219
1.81898e-05
-0.121822
2.60858e-05
-0.110567
3.68962e-05
-0.100346
5.10178e-05
-0.0910615
6.85367e-05
-0.082626
8.89061e-05
-0.074954
0.000110786
-0.0679921
0.000132033
-0.061662
0.000149907
-0.0559224
0.000161851
-0.0507166
0.000166006
-0.0459957