/*--------------------------------*- C++ -*----------------------------------*\
  =========                 |
  \\      /  F ield         | OpenFOAM: The Open Source CFD Toolbox
   \\    /   O peration     | Website:  https://openfoam.org
    \\  /    A nd           | Version:  dev
     \\/     M anipulation  |
\*---------------------------------------------------------------------------*/
FoamFile
{
    version     2.0;
    format      ascii;
    class       volVectorField;
    location    "200";
    object      U;
}
// * * * * * * * * * * * * * * * * * * * * * * * * * * * * * * * * * * * * * //

dimensions      [0 1 -1 0 0 0 0];

internalField   nonuniform List<vector> 
29380
(
(51.0345 0.0233472 0)
(51.0357 0.0233668 0)
(51.0623 0.0043949 0)
(51.0362 0.0235164 0)
(51.061 0.00442981 0)
(51.0585 0.0177695 0)
(51.0368 0.0237398 0)
(51.0605 0.00459205 0)
(51.0584 0.0177296 0)
(51.077 0.00701729 0)
(51.0374 0.0239731 0)
(51.0599 0.00489605 0)
(51.0581 0.017823 0)
(51.0753 0.00721952 0)
(51.0789 0.0129372 0)
(51.038 0.024203 0)
(51.0595 0.0052716 0)
(51.0578 0.0180068 0)
(51.0746 0.00754721 0)
(51.0777 0.0129632 0)
(51.0893 0.00735426 0)
(51.0386 0.0244035 0)
(51.0591 0.00569554 0)
(51.0576 0.0182504 0)
(51.0737 0.00804718 0)
(51.0769 0.013143 0)
(51.0874 0.00762031 0)
(51.0932 0.00919118 0)
(51.0393 0.024566 0)
(51.0588 0.00614236 0)
(51.0575 0.0185257 0)
(51.0731 0.00863199 0)
(51.076 0.01347 0)
(51.0864 0.00800925 0)
(51.0914 0.00930531 0)
(51.0994 0.00637881 0)
(51.0399 0.0246776 0)
(51.0585 0.00659238 0)
(51.0575 0.018812 0)
(51.0725 0.00928044 0)
(51.0753 0.0139019 0)
(51.0852 0.00859986 0)
(51.0902 0.0095835 0)
(51.0973 0.00665779 0)
(51.1035 0.00632508 0)
(51.0406 0.0247378 0)
(51.0584 0.00703511 0)
(51.0576 0.0190861 0)
(51.0721 0.00995513 0)
(51.0748 0.0144092 0)
(51.0843 0.00931359 0)
(51.0889 0.0100595 0)
(51.0959 0.00705806 0)
(51.1013 0.00650372 0)
(51.1079 0.00480685 0)
(51.0414 0.0247414 0)
(51.0582 0.00745738 0)
(51.0577 0.0193382 0)
(51.0717 0.010637 0)
(51.0744 0.0149599 0)
(51.0835 0.0101252 0)
(51.0879 0.0106883 0)
(51.0945 0.00768515 0)
(51.0999 0.00683592 0)
(51.1055 0.00506446 0)
(51.1117 0.0040617 0)
(51.0421 0.0246937 0)
(51.0581 0.00785745 0)
(51.0579 0.0195541 0)
(51.0715 0.0113005 0)
(51.0741 0.0155262 0)
(51.0829 0.0109996 0)
(51.087 0.0114451 0)
(51.0932 0.0084792 0)
(51.0983 0.00739322 0)
(51.104 0.00544075 0)
(51.1092 0.00425583 0)
(51.1152 0.00310723 0)
(51.0428 0.0245937 0)
(51.0581 0.00822725 0)
(51.0582 0.0197319 0)
(51.0714 0.0119349 0)
(51.0739 0.016086 0)
(51.0824 0.0119043 0)
(51.0862 0.0122948 0)
(51.0922 0.00942626 0)
(51.0969 0.0081417 0)
(51.1022 0.00605173 0)
(51.1076 0.00458279 0)
(51.1127 0.00331837 0)
(51.1186 0.00222453 0)
(51.0435 0.0244495 0)
(51.058 0.00857053 0)
(51.0585 0.0198653 0)
(51.0713 0.0125233 0)
(51.0738 0.0166165 0)
(51.0821 0.0128107 0)
(51.0857 0.0132064 0)
(51.0912 0.0104959 0)
(51.0956 0.00907271 0)
(51.1007 0.00686342 0)
(51.1057 0.00513653 0)
(51.111 0.00363698 0)
(51.1159 0.00238869 0)
(51.1216 0.00152079 0)
(51.0442 0.0242627 0)
(51.058 0.00888263 0)
(51.0588 0.0199579 0)
(51.0713 0.0130635 0)
(51.0739 0.0171037 0)
(51.0819 0.0136911 0)
(51.0853 0.0141458 0)
(51.0905 0.0116566 0)
(51.0945 0.0101639 0)
(51.0992 0.00787941 0)
(51.104 0.00590384 0)
(51.109 0.00417578 0)
(51.1141 0.00266008 0)
(51.1189 0.00166699 0)
(51.1244 0.000720068 0)
(51.0449 0.0240418 0)
(51.058 0.00916981 0)
(51.0591 0.0200093 0)
(51.0713 0.0135468 0)
(51.074 0.0175326 0)
(51.0819 0.0145224 0)
(51.0851 0.0150813 0)
(51.09 0.0128747 0)
(51.0936 0.01139 0)
(51.098 0.00908774 0)
(51.1024 0.00689704 0)
(51.1071 0.00492967 0)
(51.112 0.0031341 0)
(51.1171 0.00190197 0)
(51.1217 0.00082316 0)
(51.1269 0.000150948 0)
(51.0456 0.0237895 0)
(51.0581 0.00942946 0)
(51.0595 0.0200254 0)
(51.0714 0.0139772 0)
(51.0742 0.0178986 0)
(51.0819 0.0152849 0)
(51.085 0.0159817 0)
(51.0897 0.0141119 0)
(51.093 0.0127175 0)
(51.0969 0.0104709 0)
(51.1009 0.00811542 0)
(51.1053 0.0059223 0)
(51.1101 0.00382357 0)
(51.1149 0.00231971 0)
(51.1199 0.00100862 0)
(51.1243 0.000217645 0)
(51.1292 -0.000507032 0)
(51.0463 0.0235137 0)
(51.0581 0.00966865 0)
(51.0598 0.0200086 0)
(51.0715 0.0143515 0)
(51.0744 0.018195 0)
(51.0821 0.0159651 0)
(51.0851 0.0168206 0)
(51.0896 0.0153329 0)
(51.0925 0.0141098 0)
(51.096 0.0120024 0)
(51.0996 0.00955302 0)
(51.1036 0.00716565 0)
(51.1081 0.00476044 0)
(51.1128 0.00294476 0)
(51.1176 0.00135028 0)
(51.1223 0.000355174 0)
(51.1266 -0.000485487 0)
(51.1312 -0.000978652 0)
(51.047 0.023217 0)
(51.0581 0.0098858 0)
(51.0602 0.0199655 0)
(51.0716 0.0146769 0)
(51.0746 0.0184248 0)
(51.0823 0.0165538 0)
(51.0853 0.0175749 0)
(51.0897 0.0164997 0)
(51.0923 0.0155231 0)
(51.0954 0.013647 0)
(51.0984 0.0111927 0)
(51.102 0.00866559 0)
(51.1062 0.00596898 0)
(51.1106 0.0038178 0)
(51.1154 0.00188925 0)
(51.12 0.000619176 0)
(51.1246 -0.000397081 0)
(51.1285 -0.00100388 0)
(51.1328 -0.0014934 0)
(51.0476 0.0229064 0)
(51.0582 0.0100878 0)
(51.0605 0.0198992 0)
(51.0717 0.0149533 0)
(51.0749 0.0185876 0)
(51.0826 0.0170478 0)
(51.0857 0.0182291 0)
(51.0899 0.0175831 0)
(51.0923 0.0169164 0)
(51.095 0.0153617 0)
(51.0976 0.0130063 0)
(51.1007 0.0104175 0)
(51.1044 0.00746824 0)
(51.1085 0.00497506 0)
(51.1131 0.00267179 0)
(51.1177 0.00106571 0)
(51.1223 -0.00021616 0)
(51.1266 -0.000963839 0)
(51.1303 -0.00156957 0)
(51.1342 -0.00187621 0)
(51.0482 0.0225842 0)
(51.0582 0.0102733 0)
(51.0608 0.0198157 0)
(51.0718 0.0151889 0)
(51.0752 0.018691 0)
(51.0829 0.0174472 0)
(51.0861 0.0187723 0)
(51.0903 0.0185547 0)
(51.0926 0.0182456 0)
(51.0949 0.0170979 0)
(51.097 0.0149545 0)
(51.0995 0.0124041 0)
(51.1027 0.00926712 0)
(51.1065 0.0064482 0)
(51.1108 0.00374478 0)
(51.1153 0.00174545 0)
(51.1199 0.00013128 0)
(51.1243 -0.000868284 0)
(51.1283 -0.00157443 0)
(51.1317 -0.00200748 0)
(51.1352 -0.00226359 0)
(51.0488 0.0222563 0)
(51.0582 0.0104482 0)
(51.0612 0.0197177 0)
(51.0719 0.0153847 0)
(51.0754 0.0187384 0)
(51.0832 0.0177563 0)
(51.0865 0.0192006 0)
(51.0909 0.019397 0)
(51.093 0.0194756 0)
(51.0951 0.0188059 0)
(51.0968 0.0169876 0)
(51.0987 0.0145943 0)
(51.1012 0.0113621 0)
(51.1045 0.00826046 0)
(51.1085 0.00515151 0)
(51.1128 0.00271479 0)
(51.1174 0.000697603 0)
(51.1218 -0.000624264 0)
(51.126 -0.00156368 0)
(51.1298 -0.0020556 0)
(51.1328 -0.00245225 0)
(51.1358 -0.00256156 0)
(51.0494 0.0219242 0)
(51.0583 0.0106109 0)
(51.0615 0.0196096 0)
(51.072 0.0155481 0)
(51.0757 0.018739 0)
(51.0835 0.0179813 0)
(51.087 0.0195146 0)
(51.0915 0.0200962 0)
(51.0937 0.0205724 0)
(51.0956 0.0204356 0)
(51.0968 0.0190502 0)
(51.0982 0.0169434 0)
(51.1001 0.0137348 0)
(51.1027 0.0104237 0)
(51.1062 0.00692904 0)
(51.1103 0.00402682 0)
(51.1147 0.00154701 0)
(51.1192 -0.000179598 0)
(51.1235 -0.0014221 0)
(51.1274 -0.00213107 0)
(51.1309 -0.00253829 0)
(51.1335 -0.00281255 0)
(51.1362 -0.00284172 0)
(51.0499 0.0215925 0)
(51.0583 0.0107659 0)
(51.0618 0.0194932 0)
(51.0721 0.0156803 0)
(51.0759 0.0186972 0)
(51.0838 0.0181303 0)
(51.0875 0.0197195 0)
(51.0922 0.0206484 0)
(51.0945 0.0215146 0)
(51.0963 0.0219432 0)
(51.0972 0.0210829 0)
(51.098 0.019395 0)
(51.0992 0.0163505 0)
(51.1012 0.0129352 0)
(51.1041 0.00910448 0)
(51.1078 0.00573093 0)
(51.112 0.00274066 0)
(51.1164 0.000536793 0)
(51.1208 -0.00110055 0)
(51.1249 -0.00209264 0)
(51.1285 -0.00269812 0)
(51.1317 -0.00293285 0)
(51.134 -0.00315909 0)
(51.1361 -0.0030579 0)
(51.0504 0.0212617 0)
(51.0584 0.0109107 0)
(51.062 0.0193716 0)
(51.0721 0.0157873 0)
(51.0761 0.0186218 0)
(51.0841 0.0182119 0)
(51.088 0.0198236 0)
(51.0929 0.0210536 0)
(51.0954 0.0222844 0)
(51.0973 0.0232895 0)
(51.0979 0.0230277 0)
(51.0982 0.0218848 0)
(51.0987 0.0191586 0)
(51.0999 0.0157749 0)
(51.1021 0.0116926 0)
(51.1053 0.00786894 0)
(51.1092 0.00433842 0)
(51.1135 0.00159217 0)
(51.1179 -0.000522422 0)
(51.1221 -0.00189634 0)
(51.126 -0.00275957 0)
(51.1294 -0.00317609 0)
(51.1322 -0.00331004 0)
(51.134 -0.00344552 0)
(51.1356 -0.00324707 0)
(51.0509 0.0209347 0)
(51.0584 0.0110484 0)
(51.0623 0.0192451 0)
(51.0722 0.0158699 0)
(51.0763 0.0185169 0)
(51.0844 0.0182354 0)
(51.0885 0.019837 0)
(51.0936 0.0213193 0)
(51.0963 0.0228775 0)
(51.0984 0.0244465 0)
(51.0989 0.0248305 0)
(51.0989 0.0243441 0)
(51.0987 0.0220951 0)
(51.0991 0.0189043 0)
(51.1005 0.014691 0)
(51.1029 0.0104729 0)
(51.1064 0.00639444 0)
(51.1104 0.00305478 0)
(51.1148 0.000383906 0)
(51.1191 -0.0014608 0)
(51.1232 -0.00268624 0)
(51.1268 -0.00333481 0)
(51.1299 -0.00363418 0)
(51.1323 -0.00362498 0)
(51.1337 -0.0037052 0)
(51.1347 -0.0033924 0)
(51.0514 0.0206111 0)
(51.0585 0.0111754 0)
(51.0625 0.0191153 0)
(51.0722 0.0159328 0)
(51.0765 0.01839 0)
(51.0846 0.0182094 0)
(51.089 0.0197714 0)
(51.0943 0.0214551 0)
(51.0974 0.0232925 0)
(51.0996 0.0253939 0)
(51.1002 0.0264454 0)
(51.0999 0.0267042 0)
(51.0991 0.0250858 0)
(51.0986 0.0222667 0)
(51.0991 0.0180783 0)
(51.1008 0.01356 0)
(51.1036 0.00895744 0)
(51.1073 0.00498922 0)
(51.1115 0.0016933 0)
(51.1159 -0.000711715 0)
(51.1201 -0.00239256 0)
(51.124 -0.00338227 0)
(51.1273 -0.00388432 0)
(51.1301 -0.0040303 0)
(51.132 -0.00390823 0)
(51.133 -0.00392239 0)
(51.1335 -0.00351133 0)
(51.0519 0.0202918 0)
(51.0585 0.0112929 0)
(51.0627 0.0189816 0)
(51.0722 0.015976 0)
(51.0766 0.0182444 0)
(51.0848 0.0181422 0)
(51.0894 0.0196385 0)
(51.095 0.0214747 0)
(51.0984 0.023539 0)
(51.1009 0.0261243 0)
(51.1016 0.0278362 0)
(51.1012 0.0289006 0)
(51.1 0.0280502 0)
(51.0987 0.0257894 0)
(51.0982 0.0218121 0)
(51.0989 0.0171293 0)
(51.1009 0.0120638 0)
(51.1041 0.00745827 0)
(51.1081 0.00347745 0)
(51.1124 0.000430075 0)
(51.1167 -0.00180265 0)
(51.1208 -0.00322943 0)
(51.1245 -0.00404613 0)
(51.1275 -0.00436862 0)
(51.1299 -0.00439349 0)
(51.1314 -0.00414431 0)
(51.1319 -0.00411243 0)
(51.1318 -0.00360116 0)
(51.0523 0.0199756 0)
(51.0586 0.0113965 0)
(51.0629 0.0188443 0)
(51.0723 0.0160032 0)
(51.0767 0.0180857 0)
(51.085 0.0180415 0)
(51.0897 0.0194499 0)
(51.0957 0.0213921 0)
(51.0994 0.0236275 0)
(51.1023 0.0266368 0)
(51.1033 0.0289791 0)
(51.1028 0.030878 0)
(51.1013 0.0309079 0)
(51.0993 0.0293872 0)
(51.0978 0.0258291 0)
(51.0974 0.0211587 0)
(51.0985 0.0157351 0)
(51.101 0.0105161 0)
(51.1045 0.00581089 0)
(51.1087 0.00204093 0)
(51.1131 -0.000834123 0)
(51.1174 -0.00279962 0)
(51.1213 -0.00402808 0)
(51.1247 -0.00463982 0)
(51.1274 -0.00481629 0)
(51.1293 -0.00470772 0)
(51.1304 -0.00434892 0)
(51.1304 -0.00427142 0)
(51.1297 -0.00366919 0)
(51.0527 0.0196625 0)
(51.0586 0.0114861 0)
(51.0631 0.0187023 0)
(51.0723 0.016014 0)
(51.0768 0.0179163 0)
(51.0851 0.017914 0)
(51.0901 0.0192165 0)
(51.0963 0.0212231 0)
(51.1004 0.0235758 0)
(51.1037 0.0269412 0)
(51.105 0.0298618 0)
(51.1048 0.032592 0)
(51.103 0.0335812 0)
(51.1004 0.032966 0)
(51.098 0.0300469 0)
(51.0965 0.0256021 0)
(51.0965 0.0199726 0)
(51.098 0.0142065 0)
(51.101 0.00876295 0)
(51.1048 0.00420366 0)
(51.1092 0.000590736 0)
(51.1136 -0.00200847 0)
(51.1177 -0.00375387 0)
(51.1214 -0.00475076 0)
(51.1246 -0.00519165 0)
(51.1269 -0.00521124 0)
(51.1284 -0.00498811 0)
(51.129 -0.00451611 0)
(51.1286 -0.00440658 0)
(51.1274 -0.00371768 0)
(51.0531 0.0193515 0)
(51.0586 0.0115572 0)
(51.0633 0.0185558 0)
(51.0722 0.0160117 0)
(51.0769 0.0177405 0)
(51.0852 0.0177655 0)
(51.0904 0.0189484 0)
(51.0969 0.0209823 0)
(51.1013 0.0234004 0)
(51.1051 0.0270511 0)
(51.1068 0.0304837 0)
(51.1069 0.0340128 0)
(51.1051 0.0360044 0)
(51.1021 0.036432 0)
(51.0988 0.0343675 0)
(51.0961 0.0303887 0)
(51.0949 0.0247537 0)
(51.0953 0.018556 0)
(51.0975 0.0123978 0)
(51.1009 0.00699945 0)
(51.105 0.0025601 0)
(51.1094 -0.000778342 0)
(51.1138 -0.00313761 0)
(51.1178 -0.0046267 0)
(51.1213 -0.00542501 0)
(51.1241 -0.00568532 0)
(51.1261 -0.00556834 0)
(51.1271 -0.00522908 0)
(51.1273 -0.00465444 0)
(51.1263 -0.00452143 0)
(51.1246 -0.00375089 0)
(51.0534 0.0190434 0)
(51.0587 0.01161 0)
(51.0634 0.0184036 0)
(51.0722 0.0159964 0)
(51.077 0.0175599 0)
(51.0853 0.0176013 0)
(51.0906 0.0186542 0)
(51.0974 0.0206842 0)
(51.1022 0.0231216 0)
(51.1064 0.0269869 0)
(51.1087 0.0308536 0)
(51.1091 0.0351237 0)
(51.1075 0.0381226 0)
(51.1042 0.0396938 0)
(51.1002 0.0386832 0)
(51.0964 0.0354258 0)
(51.0938 0.0300283 0)
(51.093 0.0235688 0)
(51.0941 0.0167671 0)
(51.0968 0.0105103 0)
(51.1007 0.00516321 0)
(51.105 0.000981318 0)
(51.1095 -0.00210372 0)
(51.1138 -0.00418141 0)
(51.1176 -0.00544382 0)
(51.1208 -0.00603476 0)
(51.1233 -0.00613542 0)
(51.1248 -0.00588396 0)
(51.1255 -0.00543935 0)
(51.1251 -0.0047665 0)
(51.1238 -0.00462165 0)
(51.1216 -0.00377246 0)
(51.0537 0.018737 0)
(51.0587 0.0116419 0)
(51.0636 0.0182456 0)
(51.0722 0.0159713 0)
(51.077 0.0173776 0)
(51.0854 0.0174257 0)
(51.0909 0.018342 0)
(51.0978 0.0203418 0)
(51.103 0.022757 0)
(51.1077 0.0267697 0)
(51.1105 0.0309885 0)
(51.1115 0.0359222 0)
(51.1101 0.0398984 0)
(51.1068 0.0426725 0)
(51.1022 0.0428839 0)
(51.0974 0.0406015 0)
(51.0934 0.0357177 0)
(51.0912 0.0292216 0)
(51.0911 0.0219036 0)
(51.0929 0.0148108 0)
(51.0961 0.00849605 0)
(51.1003 0.00336402 0)
(51.1049 -0.000561351 0)
(51.1094 -0.00334208 0)
(51.1135 -0.00516179 0)
(51.1171 -0.00618937 0)
(51.12 -0.00659356 0)
(51.1221 -0.00653994 0)
(51.1232 -0.00616733 0)
(51.1235 -0.00562029 0)
(51.1226 -0.00485852 0)
(51.1208 -0.00471375 0)
(51.118 -0.00378043 0)
(51.054 0.0184319 0)
(51.0588 0.0116541 0)
(51.0637 0.0180806 0)
(51.0722 0.0159361 0)
(51.077 0.0171946 0)
(51.0855 0.0172425 0)
(51.091 0.0180184 0)
(51.0982 0.0199672 0)
(51.1037 0.0223257 0)
(51.1089 0.0264238 0)
(51.1123 0.0309109 0)
(51.1138 0.0364172 0)
(51.113 0.0413091 0)
(51.1098 0.0453013 0)
(51.1049 0.0468632 0)
(51.0991 0.0457929 0)
(51.0938 0.0417171 0)
(51.09 0.0354594 0)
(51.0884 0.0278149 0)
(51.089 0.0199623 0)
(51.0916 0.0126532 0)
(51.0954 0.00647557 0)
(51.0999 0.00158423 0)
(51.1045 -0.0020196 0)
(51.109 -0.00451036 0)
(51.113 -0.00606351 0)
(51.1163 -0.00687551 0)
(51.1188 -0.00710048 0)
(51.1204 -0.00690853 0)
(51.1212 -0.00642002 0)
(51.1211 -0.00577585 0)
(51.1197 -0.00493585 0)
(51.1175 -0.00479787 0)
(51.114 -0.00378 0)
(51.0543 0.0181253 0)
(51.0588 0.0116453 0)
(51.0638 0.0179086 0)
(51.0722 0.0158927 0)
(51.0771 0.0170124 0)
(51.0855 0.0170545 0)
(51.0912 0.0176892 0)
(51.0985 0.0195707 0)
(51.1043 0.0218434 0)
(51.11 0.0259716 0)
(51.1139 0.030647 0)
(51.1162 0.0366274 0)
(51.1159 0.0423494 0)
(51.1131 0.0475335 0)
(51.108 0.0505262 0)
(51.1015 0.0508721 0)
(51.095 0.0479002 0)
(51.0896 0.0421947 0)
(51.0863 0.034476 0)
(51.0855 0.0260043 0)
(51.087 0.0177224 0)
(51.0903 0.0104266 0)
(51.0946 0.00444456 0)
(51.0993 -0.000120656 0)
(51.104 -0.00340397 0)
(51.1083 -0.00559248 0)
(51.1121 -0.00689655 0)
(51.1151 -0.00750121 0)
(51.1172 -0.00756467 0)
(51.1184 -0.00724282 0)
(51.1188 -0.00664562 0)
(51.1183 -0.00590855 0)
(51.1163 -0.00500115 0)
(51.1135 -0.00487857 0)
(51.1093 -0.00376897 0)
(51.0546 0.017814 0)
(51.0588 0.011617 0)
(51.0639 0.0177294 0)
(51.0721 0.0158403 0)
(51.0771 0.0168309 0)
(51.0855 0.0168642 0)
(51.0913 0.0173589 0)
(51.0988 0.0191615 0)
(51.1049 0.0213259 0)
(51.111 0.0254363 0)
(51.1155 0.0302251 0)
(51.1185 0.0365788 0)
(51.1189 0.0430269 0)
(51.1166 0.0493388 0)
(51.1116 0.0537929 0)
(51.1047 0.0557155 0)
(51.097 0.0541271 0)
(51.09 0.0493106 0)
(51.085 0.0418262 0)
(51.0825 0.0329467 0)
(51.0827 0.0237753 0)
(51.0851 0.0153278 0)
(51.089 0.00814193 0)
(51.0937 0.00246824 0)
(51.0986 -0.00175264 0)
(51.1032 -0.00469564 0)
(51.1074 -0.00659611 0)
(51.1108 -0.0076595 0)
(51.1134 -0.00807475 0)
(51.1152 -0.00798839 0)
(51.1161 -0.00754847 0)
(51.1161 -0.00684444 0)
(51.115 -0.00602038 0)
(51.1124 -0.00505861 0)
(51.109 -0.0049552 0)
(51.1039 -0.00375225 0)
(51.0548 0.0174947 0)
(51.0589 0.0115687 0)
(51.064 0.0175449 0)
(51.0721 0.0157809 0)
(51.0771 0.0166508 0)
(51.0855 0.0166729 0)
(51.0914 0.0170314 0)
(51.0991 0.0187469 0)
(51.1054 0.0207856 0)
(51.1119 0.024838 0)
(51.117 0.0296733 0)
(51.1207 0.0363022 0)
(51.1219 0.0433622 0)
(51.1202 0.0507082 0)
(51.1156 0.0566043 0)
(51.1085 0.0602101 0)
(51.0999 0.0602516 0)
(51.0914 0.0566659 0)
(51.0845 0.0497695 0)
(51.0801 0.0407625 0)
(51.0787 0.0308574 0)
(51.0799 0.0212802 0)
(51.0831 0.012806 0)
(51.0876 0.00587692 0)
(51.0927 0.00055541 0)
(51.0977 -0.00328798 0)
(51.1022 -0.00589957 0)
(51.1061 -0.00751837 0)
(51.1092 -0.00835925 0)
(51.1114 -0.00859856 0)
(51.1128 -0.00837955 0)
(51.1133 -0.00782462 0)
(51.1129 -0.00701774 0)
(51.1112 -0.00611411 0)
(51.1078 -0.00511246 0)
(51.1037 -0.00503016 0)
(51.0977 -0.0037298 0)
(51.0551 0.0171663 0)
(51.0589 0.0115038 0)
(51.0641 0.0173572 0)
(51.0721 0.0157152 0)
(51.0771 0.0164718 0)
(51.0855 0.0164818 0)
(51.0915 0.0167095 0)
(51.0993 0.0183332 0)
(51.1059 0.0202345 0)
(51.1128 0.024196 0)
(51.1184 0.0290191 0)
(51.1227 0.0358308 0)
(51.1248 0.0433842 0)
(51.124 0.0516469 0)
(51.1199 0.0589218 0)
(51.1128 0.0642609 0)
(51.1036 0.0661303 0)
(51.0938 0.0641029 0)
(51.085 0.0581764 0)
(51.0786 0.0493854 0)
(51.0752 0.0389795 0)
(51.0749 0.0283652 0)
(51.0772 0.0185644 0)
(51.0812 0.0102495 0)
(51.0862 0.00365308 0)
(51.0915 -0.00126243 0)
(51.0965 -0.00472709 0)
(51.1008 -0.00701063 0)
(51.1044 -0.00836506 0)
(51.1071 -0.00899857 0)
(51.1089 -0.0090826 0)
(51.11 -0.00873831 0)
(51.1102 -0.00807365 0)
(51.1091 -0.0071656 0)
(51.1066 -0.00619583 0)
(51.1023 -0.00516468 0)
(51.0974 -0.00510451 0)
(51.0906 -0.00370366 0)
(51.0553 0.0168285 0)
(51.0589 0.0114249 0)
(51.0642 0.0171694 0)
(51.0721 0.015646 0)
(51.0771 0.0162947 0)
(51.0855 0.0162918 0)
(51.0916 0.0163953 0)
(51.0995 0.017925 0)
(51.1063 0.0196811 0)
(51.1135 0.0235261 0)
(51.1196 0.0282879 0)
(51.1247 0.0351985 0)
(51.1276 0.0431287 0)
(51.1277 0.0521774 0)
(51.1244 0.06073 0)
(51.1176 0.0677945 0)
(51.1081 0.0716318 0)
(51.0971 0.0714558 0)
(51.0865 0.0668906 0)
(51.078 0.0587098 0)
(51.0725 0.0481121 0)
(51.0703 0.0366322 0)
(51.0713 0.0255312 0)
(51.0746 0.0157358 0)
(51.0793 0.00769528 0)
(51.0848 0.00151327 0)
(51.0901 -0.00297886 0)
(51.095 -0.00606214 0)
(51.099 -0.00803377 0)
(51.1022 -0.0091389 0)
(51.1046 -0.00958855 0)
(51.1061 -0.00952911 0)
(51.1069 -0.00906884 0)
(51.1065 -0.0082921 0)
(51.1047 -0.00729358 0)
(51.1012 -0.00626749 0)
(51.0959 -0.00522074 0)
(51.0903 -0.00517538 0)
(51.0826 -0.00367753 0)
(51.0555 0.0164847 0)
(51.0589 0.0113384 0)
(51.0643 0.0169827 0)
(51.0721 0.0155732 0)
(51.0771 0.0161195 0)
(51.0855 0.0161037 0)
(51.0916 0.0160903 0)
(51.0997 0.0175261 0)
(51.1066 0.0191334 0)
(51.1142 0.0228427 0)
(51.1208 0.0275026 0)
(51.1265 0.0344382 0)
(51.1303 0.0426342 0)
(51.1313 0.0523304 0)
(51.1289 0.0620316 0)
(51.1227 0.0707619 0)
(51.1132 0.0766425 0)
(51.1014 0.0785611 0)
(51.0892 0.0757359 0)
(51.0784 0.0685939 0)
(51.0706 0.0581819 0)
(51.0663 0.046092 0)
(51.0656 0.0337942 0)
(51.0677 0.0224802 0)
(51.072 0.0128495 0)
(51.0775 0.00519982 0)
(51.0832 -0.000527061 0)
(51.0885 -0.00458178 0)
(51.0931 -0.00729617 0)
(51.0968 -0.00897107 0)
(51.0996 -0.00985108 0)
(51.1017 -0.0101337 0)
(51.1029 -0.00994484 0)
(51.1032 -0.0093659 0)
(51.1021 -0.00848514 0)
(51.0993 -0.00740183 0)
(51.0948 -0.00633723 0)
(51.0885 -0.00527664 0)
(51.0823 -0.00524982 0)
(51.0731 -0.00364048 0)
(51.0556 0.0161357 0)
(51.059 0.0112487 0)
(51.0644 0.0167984 0)
(51.072 0.015496 0)
(51.0771 0.0159462 0)
(51.0855 0.0159184 0)
(51.0916 0.0157958 0)
(51.0998 0.0171391 0)
(51.1069 0.0185968 0)
(51.1148 0.0221566 0)
(51.1218 0.0266828 0)
(51.1282 0.0335805 0)
(51.1328 0.0419407 0)
(51.1348 0.0521471 0)
(51.1335 0.0628487 0)
(51.1281 0.0731392 0)
(51.1189 0.0810728 0)
(51.1066 0.0852656 0)
(51.093 0.0845271 0)
(51.0801 0.0788662 0)
(51.0698 0.069074 0)
(51.0631 0.0567095 0)
(51.0603 0.0434049 0)
(51.061 0.0306061 0)
(51.0644 0.0192872 0)
(51.0696 0.00997877 0)
(51.0755 0.00279115 0)
(51.0813 -0.00244873 0)
(51.0865 -0.00607066 0)
(51.0908 -0.00843052 0)
(51.0942 -0.00983339 0)
(51.0967 -0.0105077 0)
(51.0984 -0.0106433 0)
(51.0993 -0.0103239 0)
(51.0989 -0.00963295 0)
(51.0968 -0.00864968 0)
(51.0929 -0.00749895 0)
(51.0873 -0.00640121 0)
(51.0803 -0.0053462 0)
(51.0731 -0.00530808 0)
(51.0618 -0.00360045 0)
(51.0558 0.0157873 0)
(51.059 0.0111594 0)
(51.0644 0.0166148 0)
(51.072 0.0154099 0)
(51.0771 0.0157735 0)
(51.0855 0.0157362 0)
(51.0917 0.0155125 0)
(51.0999 0.0167659 0)
(51.1072 0.0180761 0)
(51.1153 0.0214776 0)
(51.1227 0.0258457 0)
(51.1297 0.0326529 0)
(51.1351 0.0410869 0)
(51.1382 0.0516709 0)
(51.138 0.0632148 0)
(51.1336 0.0749259 0)
(51.125 0.0848609 0)
(51.1125 0.0914355 0)
(51.0979 0.0930788 0)
(51.0831 0.0893341 0)
(51.0702 0.0806354 0)
(51.0609 0.0684046 0)
(51.0557 0.0543682 0)
(51.0545 0.0402045 0)
(51.0566 0.0271643 0)
(51.0612 0.0160444 0)
(51.0671 0.00716671 0)
(51.0734 0.000497705 0)
(51.0792 -0.00424566 0)
(51.0841 -0.00744488 0)
(51.0881 -0.00947479 0)
(51.0911 -0.010627 0)
(51.0933 -0.0111203 0)
(51.0948 -0.0111117 0)
(51.095 -0.0106684 0)
(51.0937 -0.00986452 0)
(51.0906 -0.00879486 0)
(51.0854 -0.00757925 0)
(51.0789 -0.00647716 0)
(51.0711 -0.00540828 0)
(51.0622 -0.00535695 0)
(51.0485 -0.00355769 0)
(51.0559 0.015441 0)
(51.059 0.011073 0)
(51.0645 0.0164316 0)
(51.072 0.01531 0)
(51.0771 0.0155996 0)
(51.0855 0.0155568 0)
(51.0917 0.0152406 0)
(51.1 0.0164076 0)
(51.1074 0.0175738 0)
(51.1157 0.0208122 0)
(51.1235 0.025005 0)
(51.1311 0.0316796 0)
(51.1373 0.0401094 0)
(51.1414 0.0509488 0)
(51.1424 0.0631752 0)
(51.1392 0.0761416 0)
(51.1314 0.0879728 0)
(51.1192 0.0969626 0)
(51.1038 0.101213 0)
(51.0873 0.0997915 0)
(51.072 0.0926834 0)
(51.0598 0.0810557 0)
(51.0519 0.0666425 0)
(51.0484 0.0513188 0)
(51.0489 0.0366089 0)
(51.0525 0.0235826 0)
(51.0581 0.0128136 0)
(51.0646 0.00445436 0)
(51.071 -0.00166531 0)
(51.0767 -0.0059124 0)
(51.0813 -0.0087121 0)
(51.0848 -0.0104352 0)
(51.0876 -0.0113653 0)
(51.0896 -0.0116847 0)
(51.0906 -0.0115411 0)
(51.09 -0.0109708 0)
(51.0876 -0.0100693 0)
(51.0831 -0.00891071 0)
(51.0769 -0.00766214 0)
(51.0696 -0.00654667 0)
(51.0603 -0.00547071 0)
(51.0495 -0.00537684 0)
(51.0239 -0.00353059 0)
(51.0561 0.0151015 0)
(51.059 0.0109867 0)
(51.0646 0.0162448 0)
(51.072 0.0151942 0)
(51.0771 0.0154222 0)
(51.0854 0.0153797 0)
(51.0917 0.0149801 0)
(51.1 0.0160646 0)
(51.1076 0.0170921 0)
(51.1161 0.0201663 0)
(51.1243 0.0241722 0)
(51.1323 0.0306815 0)
(51.1393 0.0390414 0)
(51.1444 0.0500255 0)
(51.1466 0.0627792 0)
(51.1447 0.0768224 0)
(51.138 0.0904011 0)
(51.1264 0.101769 0)
(51.1107 0.108776 0)
(51.0929 0.11003 0)
(51.0752 0.105009 0)
(51.0601 0.0945047 0)
(51.0492 0.0801448 0)
(51.0431 0.0639458 0)
(51.0415 0.0476999 0)
(51.0437 0.0327554 0)
(51.0486 0.019944 0)
(51.055 0.00965115 0)
(51.0619 0.00186847 0)
(51.0683 -0.00368568 0)
(51.0737 -0.00745367 0)
(51.0779 -0.00987788 0)
(51.0812 -0.0113263 0)
(51.0839 -0.0120458 0)
(51.0855 -0.0122037 0)
(51.0857 -0.0119213 0)
(51.084 -0.0112401 0)
(51.0804 -0.0102346 0)
(51.0747 -0.00901774 0)
(51.0678 -0.00773224 0)
(51.0591 -0.00662117 0)
(51.0479 -0.00550383 0)
(51.0363 -0.0053852 0)
(50.9187 -0.00316742 0)
(51.0562 0.0147713 0)
(51.0591 0.0108994 0)
(51.0646 0.0160521 0)
(51.072 0.0150577 0)
(51.0771 0.0152407 0)
(51.0854 0.0152038 0)
(51.0917 0.0147302 0)
(51.1001 0.015737 0)
(51.1077 0.0166318 0)
(51.1165 0.0195431 0)
(51.1249 0.0233559 0)
(51.1334 0.0296757 0)
(51.1411 0.0379122 0)
(51.1472 0.0489449 0)
(51.1506 0.0620803 0)
(51.1501 0.0770166 0)
(51.1447 0.0921626 0)
(51.1339 0.105807 0)
(51.1184 0.115635 0)
(51.0996 0.119847 0)
(51.0799 0.117386 0)
(51.0619 0.10856 0)
(51.0478 0.0947552 0)
(51.0387 0.0780426 0)
(51.0346 0.0604679 0)
(51.0349 0.0436733 0)
(51.0387 0.0287521 0)
(51.0447 0.0163247 0)
(51.0518 0.00659865 0)
(51.0589 -0.000568522 0)
(51.0652 -0.00556207 0)
(51.0702 -0.0088729 0)
(51.0742 -0.0109578 0)
(51.0774 -0.0121486 0)
(51.0797 -0.0126734 0)
(51.0807 -0.0126654 0)
(51.0799 -0.012262 0)
(51.0771 -0.0114619 0)
(51.072 -0.0103793 0)
(51.0656 -0.00910174 0)
(51.0576 -0.00780571 0)
(51.047 -0.00666795 0)
(51.034 -0.00554583 0)
(50.9921 -0.00507658 0)
(50.6799 -0.00213684 0)
(51.0563 0.0144367 0)
(51.0591 0.0108077 0)
(51.0647 0.0158494 0)
(51.0719 0.0149025 0)
(51.0771 0.0150537 0)
(51.0854 0.0150289 0)
(51.0917 0.0144899 0)
(51.1002 0.015424 0)
(51.1079 0.0161936 0)
(51.1168 0.0189457 0)
(51.1255 0.0225629 0)
(51.1344 0.0286763 0)
(51.1427 0.0367469 0)
(51.1497 0.0477458 0)
(51.1543 0.0611303 0)
(51.1552 0.0767797 0)
(51.1513 0.0932934 0)
(51.1418 0.10906 0)
(51.1267 0.121693 0)
(51.1074 0.129062 0)
(51.086 0.129581 0)
(51.0653 0.122997 0)
(51.0479 0.110315 0)
(51.0354 0.0935341 0)
(51.0284 0.0749074 0)
(51.0265 0.0563945 0)
(51.0287 0.0393752 0)
(51.0339 0.0246991 0)
(51.0409 0.0127834 0)
(51.0485 0.00369071 0)
(51.0556 -0.00284713 0)
(51.0615 -0.00729463 0)
(51.0663 -0.0101864 0)
(51.0702 -0.0119559 0)
(51.0732 -0.0129086 0)
(51.0751 -0.0132337 0)
(51.0752 -0.0130794 0)
(51.0733 -0.0125483 0)
(51.069 -0.0116535 0)
(51.063 -0.01049 0)
(51.0558 -0.00918527 0)
(51.0461 -0.00784807 0)
(51.0339 -0.00671699 0)
(51.006 -0.00553365 0)
(50.8097 -0.00375824 0)
(50.366 -0.000963983 0)
(51.0564 0.014096 0)
(51.0591 0.0106957 0)
(51.0647 0.015634 0)
(51.0719 0.0147277 0)
(51.0771 0.0148635 0)
(51.0854 0.0148539 0)
(51.0917 0.0142583 0)
(51.1002 0.0151249 0)
(51.108 0.0157768 0)
(51.117 0.0183752 0)
(51.126 0.0217981 0)
(51.1353 0.0276943 0)
(51.1442 0.0355669 0)
(51.1521 0.0464641 0)
(51.1578 0.0599804 0)
(51.1602 0.0761712 0)
(51.1578 0.0938444 0)
(51.1497 0.111541 0)
(51.1356 0.126886 0)
(51.1162 0.137517 0)
(51.0935 0.141366 0)
(51.0703 0.137571 0)
(51.0496 0.126627 0)
(51.0335 0.11031 0)
(51.0232 0.0909886 0)
(51.0186 0.0709433 0)
(51.0189 0.0518924 0)
(51.0228 0.0349355 0)
(51.0293 0.0206754 0)
(51.037 0.00936985 0)
(51.0448 0.000948108 0)
(51.0518 -0.00496122 0)
(51.0575 -0.00889785 0)
(51.0621 -0.0114014 0)
(51.0659 -0.0128812 0)
(51.0687 -0.0135913 0)
(51.0698 -0.0137357 0)
(51.0689 -0.0134322 0)
(51.0656 -0.0127968 0)
(51.0602 -0.0118012 0)
(51.0536 -0.0105944 0)
(51.045 -0.00923218 0)
(51.0333 -0.00788777 0)
(51.017 -0.00674609 0)
(50.8736 -0.00488641 0)
(50.5108 -0.00180557 0)
(50.0117 7.11139e-05 0)
(51.0565 0.013725 0)
(51.0591 0.0105635 0)
(51.0648 0.0154152 0)
(51.0719 0.0145352 0)
(51.0771 0.01467 0)
(51.0853 0.0146792 0)
(51.0917 0.0140341 0)
(51.1002 0.0148387 0)
(51.1081 0.015381 0)
(51.1173 0.0178324 0)
(51.1264 0.0210648 0)
(51.1361 0.0267382 0)
(51.1456 0.0343893 0)
(51.1543 0.0451297 0)
(51.1611 0.0586763 0)
(51.1648 0.0752511 0)
(51.1641 0.093876 0)
(51.1576 0.113283 0)
(51.1448 0.131187 0)
(51.1258 0.145092 0)
(51.1023 0.152527 0)
(51.077 0.15202 0)
(51.053 0.143454 0)
(51.0332 0.128218 0)
(51.0192 0.108656 0)
(51.0114 0.0873301 0)
(51.0093 0.066348 0)
(51.0116 0.0471261 0)
(51.0172 0.0304579 0)
(51.0247 0.016749 0)
(51.0329 0.00611799 0)
(51.0408 -0.00161483 0)
(51.0475 -0.00692134 0)
(51.0531 -0.010382 0)
(51.0578 -0.0125301 0)
(51.0615 -0.0137191 0)
(51.0636 -0.0142036 0)
(51.0638 -0.0141673 0)
(51.0616 -0.01374 0)
(51.057 -0.0129919 0)
(51.0509 -0.0119368 0)
(51.0434 -0.0106582 0)
(51.0329 -0.00926842 0)
(51.0194 -0.00792909 0)
(50.935 -0.00634532 0)
(50.5955 -0.00325643 0)
(50.1526 -1.91606e-05 0)
(49.64 0.000941162 0)
(51.0566 0.0133653 0)
(51.0592 0.0103906 0)
(51.0647 0.0151958 0)
(51.0719 0.0143496 0)
(51.0771 0.0144758 0)
(51.0853 0.0145042 0)
(51.0917 0.0138167 0)
(51.1002 0.0145646 0)
(51.1082 0.0150052 0)
(51.1175 0.0173169 0)
(51.1268 0.0203649 0)
(51.1369 0.0258143 0)
(51.1468 0.033228 0)
(51.1562 0.0437688 0)
(51.1641 0.0572605 0)
(51.1692 0.0740776 0)
(51.1702 0.0934545 0)
(51.1654 0.114339 0)
(51.1541 0.134599 0)
(51.136 0.151704 0)
(51.1122 0.162879 0)
(51.0852 0.166085 0)
(51.0583 0.160528 0)
(51.0346 0.147057 0)
(51.0166 0.127819 0)
(51.0053 0.105556 0)
(51.0003 0.0827832 0)
(51.0005 0.0613242 0)
(51.0048 0.0422308 0)
(51.0117 0.0260334 0)
(51.02 0.0129695 0)
(51.0285 0.0030534 0)
(51.0363 -0.00400106 0)
(51.0429 -0.00873764 0)
(51.0486 -0.0117616 0)
(51.0533 -0.0135605 0)
(51.0565 -0.0144735 0)
(51.0579 -0.0147336 0)
(51.0569 -0.014545 0)
(51.0534 -0.0139862 0)
(51.048 -0.0131679 0)
(51.0412 -0.0120297 0)
(51.0321 -0.0107027 0)
(51.0204 -0.00928815 0)
(50.9741 -0.00779476 0)
(50.6928 -0.00479122 0)
(50.2422 -0.00158452 0)
(49.7639 0.001513 0)
(49.2662 0.00160442 0)
(51.0567 0.0130176 0)
(51.0592 0.0102139 0)
(51.0648 0.0149932 0)
(51.0719 0.0141745 0)
(51.0771 0.0142895 0)
(51.0853 0.0143289 0)
(51.0917 0.0136051 0)
(51.1003 0.014302 0)
(51.1082 0.0146485 0)
(51.1176 0.0168286 0)
(51.1272 0.0196994 0)
(51.1375 0.0249267 0)
(51.1479 0.032094 0)
(51.158 0.0424026 0)
(51.1669 0.0557689 0)
(51.1733 0.0727049 0)
(51.1759 0.0926478 0)
(51.173 0.114773 0)
(51.1635 0.137153 0)
(51.1466 0.157309 0)
(51.1231 0.172275 0)
(51.095 0.179517 0)
(51.0654 0.177556 0)
(51.038 0.166577 0)
(51.0157 0.148336 0)
(51.0003 0.125599 0)
(50.9919 0.101248 0)
(50.9897 0.0775875 0)
(50.9923 0.0560444 0)
(50.9982 0.0373258 0)
(51.0062 0.0217299 0)
(51.0151 0.00937588 0)
(51.0237 0.000183199 0)
(51.0314 -0.00621836 0)
(51.0382 -0.0104269 0)
(51.044 -0.0130296 0)
(51.0485 -0.0144935 0)
(51.0511 -0.0151323 0)
(51.0514 -0.0151985 0)
(51.0492 -0.0148518 0)
(51.0447 -0.0142048 0)
(51.0387 -0.0132983 0)
(51.0307 -0.0120979 0)
(51.0204 -0.0107158 0)
(50.9963 -0.00927481 0)
(50.7829 -0.00661188 0)
(50.3487 -0.00282338 0)
(49.8476 -0.000108947 0)
(49.3654 0.00271332 0)
(48.9001 0.00205918 0)
(51.0568 0.0126941 0)
(51.0592 0.0100399 0)
(51.0649 0.0147806 0)
(51.0719 0.0140453 0)
(51.0771 0.0141117 0)
(51.0853 0.0141578 0)
(51.0917 0.0133984 0)
(51.1003 0.01405 0)
(51.1083 0.0143101 0)
(51.1178 0.0163663 0)
(51.1275 0.0190682 0)
(51.1381 0.024078 0)
(51.1489 0.0309948 0)
(51.1596 0.0410488 0)
(51.1694 0.0542336 0)
(51.1771 0.0711824 0)
(51.1813 0.0915225 0)
(51.1804 0.11466 0)
(51.1727 0.1389 0)
(51.1575 0.161899 0)
(51.1347 0.180606 0)
(51.1061 0.192099 0)
(51.0744 0.194243 0)
(51.0434 0.186479 0)
(51.0168 0.170001 0)
(50.9968 0.147396 0)
(50.9845 0.121794 0)
(50.9793 0.0960052 0)
(50.9799 0.0719585 0)
(50.9845 0.0506641 0)
(50.9919 0.0325039 0)
(51.0007 0.0176038 0)
(51.0098 0.00598768 0)
(51.0185 -0.00249462 0)
(51.0264 -0.00828351 0)