/*--------------------------------*- C++ -*----------------------------------*\
  =========                 |
  \\      /  F ield         | OpenFOAM: The Open Source CFD Toolbox
   \\    /   O peration     | Website:  https://openfoam.org
    \\  /    A nd           | Version:  dev
     \\/     M anipulation  |
\*---------------------------------------------------------------------------*/
FoamFile
{
    version     2.0;
    format      ascii;
    class       volScalarField;
    location    "200";
    object      yPlus;
}
// * * * * * * * * * * * * * * * * * * * * * * * * * * * * * * * * * * * * * //

dimensions      [0 0 0 0 0 0 0];

internalField   uniform 0;

boundaryField
{
    inlet-l
    {
        type            calculated;
        value           uniform 0;
    }
    airfoil-l1
    {
        type            calculated;
        value           nonuniform List<scalar> 
71
(
191.478
214.73
249.812
283.619
310.192
327.594
337.909
343.087
344.621
343.644
340.846
336.985
331.628
325.212
318.137
310.669
302.978
295.172
287.306
279.459
271.696
264.034
256.506
249.139
241.962
234.997
228.267
221.785
215.598
209.736
204.233
199.133
194.481
190.316
186.699
183.661
181.227
179.384
178.092
177.304
176.902
176.808
176.984
177.284
177.698
178.069
178.438
178.686
178.809
178.763
178.565
178.125
177.419
176.515
175.369
173.954
172.35
170.505
168.491
166.28
163.956
161.49
158.929
156.3
153.606
150.899
148.18
145.498
142.834
140.328
137.699
)
;
    }
    empty-1
    {
        type            empty;
    }
    empty-2
    {
        type            empty;
    }
    wall-l1
    {
        type            calculated;
        value           nonuniform List<scalar> 
104
(
15.8896
16.2664
17.7089
16.9111
15.828
15.6386
16.1282
16.5907
16.624
16.401
16.0746
15.8401
15.7158
15.666
15.6909
15.7464
15.8254
15.8957
15.9392
15.9493
15.9307
15.8835
15.8023
15.6906
15.5431
15.3771
15.2117
15.0587
14.9299
14.8198
14.7189
14.6195
14.5138
14.4037
14.2903
14.1756
14.06
13.942
13.8191
13.6902
13.5564
13.419
13.2807
13.1446
13.0123
12.8843
12.7612
12.6418
12.5255
12.4088
12.2897
12.1659
12.035
11.8979
11.7562
11.6151
11.4795
11.3551
11.2458
11.1536
11.0793
11.0227
10.983
10.9597
10.9516
10.9572
10.9759
11.0062
11.0473
11.0993
11.1642
11.2432
11.3401
11.4572
11.5969
11.7595
11.9432
12.1456
12.3619
12.5868
12.8152
13.0429
13.2667
13.4857
13.6997
13.9101
14.1191
14.3293
14.5425
14.7611
14.985
15.2151
15.4495
15.6881
15.9283
16.1695
16.4096
16.6475
16.8829
17.1152
17.3432
17.5691
17.7862
18.019
)
;
    }
    airfoil-l2
    {
        type            calculated;
        value           nonuniform List<scalar> 
104
(
137.346
139.713
141.557
142.887
143.852
144.534
144.995
145.275
145.423
145.466
145.389
145.212
144.967
144.678
144.352
143.995
143.61
143.224
142.814
142.391
141.963
141.53
141.091
140.641
140.189
139.737
139.279
138.817
138.352
137.881
137.404
136.937
136.475
136.002
135.525
135.052
134.582
134.114
133.644
133.164
132.676
132.186
131.699
131.221
130.755
130.29
129.821
129.343
128.857
128.358
127.845
127.321
126.792
126.266
125.749
125.247
124.754
124.265
123.761
123.23
122.669
122.097
121.535
120.983
120.452
119.925
119.374
118.773
118.105
117.37
116.567
115.713
114.857
114.036
113.276
112.628
112.087
111.629
111.229
110.833
110.389
109.849
109.209
108.453
107.599
106.68
105.718
104.722
103.69
102.639
101.542
100.378
99.1315
97.7911
96.3551
94.8277
93.2151
91.5148
89.6981
87.6778
85.3887
82.5261
79.3097
73.1187
)
;
    }
    empty-3
    {
        type            empty;
    }
    empty-4
    {
        type            empty;
    }
    wall-l2
    {
        type            calculated;
        value           nonuniform List<scalar> 
51
(
18.1961
18.3934
18.594
18.8071
19.0211
19.223
19.4139
19.6014
19.7924
19.9857
20.1794
20.3716
20.5594
20.7426
20.9195
21.0907
21.2573
21.4217
21.5862
21.7529
21.9225
22.0961
22.2738
22.4568
22.6453
22.8406
23.0424
23.2514
23.4664
23.6874
23.9124
24.1408
24.37
24.5991
24.8251
25.0467
25.2605
25.4654
25.6576
25.836
25.9972
26.1409
26.2646
26.3693
26.4547
26.5243
26.582
26.6347
26.7069
26.7857
27.0998
)
;
    }
    outlet-l
    {
        type            calculated;
        value           uniform 0;
    }
    empty-5
    {
        type            empty;
    }
    empty-6
    {
        type            empty;
    }
    outlet-h
    {
        type            calculated;
        value           uniform 0;
    }
    wall-h2
    {
        type            calculated;
        value           nonuniform List<scalar> 
51
(
18.8588
19.069
19.2676
19.4667
19.6652
19.8616
20.0561
20.2495
20.4416
20.6319
20.82
21.0055
21.1883
21.3686
21.5467
21.7231
21.8985
22.0739
22.2502
22.4285
22.6094
22.7942
22.9835
23.1784
23.3796
23.5877
23.8031
24.0258
24.2554
24.4912
24.732
24.9766
25.2232
25.4702
25.7152
25.9565
26.1915
26.4181
26.6338
26.8364
27.0236
27.1934
27.3446
27.4762
27.5887
27.6834
27.765
27.8377
27.9282
28.0187
28.3564
)
;
    }
    empty-7
    {
        type            empty;
    }
    empty-8
    {
        type            empty;
    }
    airfoil-h2
    {
        type            calculated;
        value           nonuniform List<scalar> 
104
(
135.994
138.324
140.152
141.481
142.453
143.157
143.644
143.959
144.142
144.231
144.22
144.116
143.943
143.715
143.443
143.144
142.816
142.482
142.123
141.758
141.381
140.992
140.595
140.196
139.79
139.37
138.953
138.528
138.094
137.662
137.224
136.78
136.335
135.898
135.455
135.004
134.545
134.085
133.628
133.163
132.698
132.222
131.746
131.275
130.816
130.365
129.91
129.443
128.954
128.433
127.903
127.353
126.822
126.319
125.837
125.365
124.888
124.376
123.822
123.251
122.67
122.119
121.586
121.077
120.564
120.024
119.435
118.788
118.095
117.362
116.588
115.801
115.005
114.229
113.503
112.848
112.285
111.788
111.337
110.879
110.371
109.79
109.115
108.345
107.504
106.607
105.661
104.677
103.655
102.589
101.472
100.291
99.0406
97.7198
96.3172
94.8291
93.2397
91.5259
89.6517
87.5493
85.1756
82.2493
79.0229
72.8485
)
;
    }
    wall-h1
    {
        type            calculated;
        value           nonuniform List<scalar> 
104
(
15.7571
15.9506
16.2294
16.0595
15.8975
15.8079
15.8246
15.8739
15.8758
15.8655
15.8304
15.7882
15.7273
15.6553
15.5787
15.5018
15.4287
15.3493
15.2749
15.2002
15.1323
15.0744
15.0164
14.9648
14.9118
14.8588
14.8112
14.765
14.7208
14.6722
14.6109
14.5323
14.4349
14.3209
14.1969
14.0682
13.9378
13.8069
13.6744
13.5394
13.4039
13.2681
13.1357
13.0074
12.8844
12.7652
12.6495
12.5364
12.4253
12.3159
12.2068
12.0982
11.9898
11.8819
11.7765
11.677
11.5861
11.5073
11.4423
11.3928
11.3579
11.3383
11.3332
11.3424
11.3648
11.3991
11.4451
11.5023
11.5701
11.6499
11.7435
11.8523
11.9786
12.1241
12.2894
12.4739
12.6748
12.889
13.1126
13.3408
13.5688
13.7939
14.0144
14.2289
14.4388
14.6453
14.8508
15.0579
15.2682
15.4842
15.7053
15.9324
16.1634
16.3979
16.6333
16.869
17.1027
17.334
17.5627
17.7874
18.0089
18.2285
18.439
18.6713
)
;
    }
    empty-9
    {
        type            empty;
    }
    empty-10
    {
        type            empty;
    }
    inlet-h
    {
        type            calculated;
        value           uniform 0;
    }
    airfoil-h1
    {
        type            calculated;
        value           nonuniform List<scalar> 
71
(
189.631
210.063
244.577
279.128
307.47
326.853
338.914
345.481
348.053
347.799
345.492
341.85
336.774
330.441
323.299
315.657
307.712
299.593
291.36
283.122
274.933
266.821
258.836
251.006
243.34
235.888
228.669
221.722
215.062
208.729
202.77
197.235
192.17
187.621
183.658
180.306
177.6
175.55
174.105
173.202
172.752
172.646
172.818
173.174
173.678
174.155
174.608
174.968
175.219
175.334
175.244
174.983
174.462
173.71
172.703
171.429
169.947
168.241
166.313
164.22
161.966
159.584
157.099
154.539
151.919
149.253
146.609
143.97
141.372
138.933
136.357
)
;
    }
    empty-11
    {
        type            empty;
    }
    empty-12
    {
        type            empty;
    }
}


// ************************************************************************* //
