/*--------------------------------*- C++ -*----------------------------------*\
  =========                 |
  \\      /  F ield         | OpenFOAM: The Open Source CFD Toolbox
   \\    /   O peration     | Website:  https://openfoam.org
    \\  /    A nd           | Version:  dev
     \\/     M anipulation  |
\*---------------------------------------------------------------------------*/
FoamFile
{
    version     2.0;
    format      ascii;
    class       volScalarField;
    location    "225";
    object      nut;
}
// * * * * * * * * * * * * * * * * * * * * * * * * * * * * * * * * * * * * * //

dimensions      [0 2 -1 0 0 0 0];

internalField   nonuniform List<scalar> 
29380
(
6.20543e-06
1.30372e-05
4.68134e-06
1.90688e-05
9.184e-06
6.94368e-06
1.70877e-05
1.81778e-05
1.00281e-05
7.86657e-06
1.0894e-05
1.94954e-05
1.47053e-05
1.01442e-05
8.91511e-06
6.01269e-06
1.29203e-05
1.50952e-05
1.29386e-05
7.53667e-06
9.6218e-06
4.22649e-06
6.47265e-06
1.09065e-05
1.25747e-05
8.13612e-06
7.94126e-06
8.68907e-06
5.01568e-06
3.87101e-06
6.56599e-06
9.50174e-06
9.1096e-06
7.81241e-06
6.40182e-06
7.86281e-06
8.26147e-06
4.37036e-06
4.717e-06
6.64563e-06
9.26786e-06
8.3455e-06
6.75695e-06
5.07679e-06
7.90961e-06
1.24836e-05
7.8791e-06
5.46411e-06
5.67671e-06
8.77823e-06
8.69732e-06
8.39781e-06
5.73683e-06
4.49116e-06
8.61167e-06
1.40997e-05
1.29983e-05
8.78207e-06
6.85393e-06
8.4197e-06
8.83617e-06
1.00119e-05
8.32981e-06
4.7922e-06
5.02938e-06
8.86412e-06
1.20526e-05
1.49536e-05
1.29838e-05
9.83955e-06
8.73967e-06
9.00955e-06
1.06767e-05
1.1313e-05
7.3718e-06
4.85109e-06
5.6494e-06
8.80812e-06
8.87193e-06
1.22907e-05
1.41632e-05
1.26363e-05
9.63565e-06
9.39642e-06
1.02522e-05
1.26429e-05
1.11772e-05
6.70723e-06
5.427e-06
6.2469e-06
8.27726e-06
6.89067e-06
8.49893e-06
1.15194e-05
1.26794e-05
1.03819e-05
9.84837e-06
9.37521e-06
1.15694e-05
1.37596e-05
9.85355e-06
6.89313e-06
6.28245e-06
6.15493e-06
7.68716e-06
6.67375e-06
6.40111e-06
8.11674e-06
1.02494e-05
1.02347e-05
9.98055e-06
8.70931e-06
9.39545e-06
1.31695e-05
1.26952e-05
9.27746e-06
7.48119e-06
6.85938e-06
5.46573e-06
7.20366e-06
7.91106e-06
6.43244e-06
6.33254e-06
7.73237e-06
9.26004e-06
9.57357e-06
8.52402e-06
7.71888e-06
1.03993e-05
1.32352e-05
1.15575e-05
9.00973e-06
8.36605e-06
6.76565e-06
4.77252e-06
6.45097e-06
9.71165e-06
8.14391e-06
6.56151e-06
6.65836e-06
8.23655e-06
8.85228e-06
8.72974e-06
7.23374e-06
7.75125e-06
1.13672e-05
1.2388e-05
1.03985e-05
9.455e-06
9.08754e-06
6.47923e-06
4.15036e-06
5.88283e-06
1.076e-05
1.03208e-05
8.40695e-06
7.24906e-06
7.85988e-06
8.29139e-06
9.05316e-06
7.90562e-06
6.51581e-06
8.77992e-06
1.13732e-05
1.11564e-05
9.94128e-06
1.04016e-05
9.69655e-06
6.53483e-06
3.34327e-06
5.9981e-06
1.04608e-05
1.12287e-05
1.06098e-05
9.02851e-06
8.32877e-06
8.2367e-06
9.24138e-06
9.22404e-06
6.86631e-06
7.04495e-06
9.39997e-06
1.0984e-05
1.01057e-05
1.02955e-05
1.14872e-05
1.08637e-05
5.93238e-06
2.70664e-06
6.81597e-06
9.42208e-06
1.04186e-05
1.13932e-05
1.07272e-05
9.32462e-06
8.71687e-06
9.22238e-06
1.0283e-05
8.48722e-06
6.71827e-06
7.71843e-06
9.97366e-06
1.01528e-05
9.64639e-06
1.09039e-05
1.29482e-05
1.14156e-05
4.67642e-06
2.44621e-06
7.53013e-06
8.55811e-06
9.00201e-06
1.03908e-05
1.10163e-05
1.0134e-05
9.43232e-06
9.10443e-06
1.03737e-05
1.04258e-05
7.72685e-06
7.05661e-06
8.66316e-06
9.9471e-06
9.30764e-06
9.40204e-06
1.14555e-05
1.45109e-05
1.04715e-05
3.49487e-06
2.3428e-06
8.2208e-06
8.31648e-06
8.12095e-06
8.83975e-06
9.93324e-06
1.01638e-05
9.90852e-06
9.03844e-06
9.6223e-06
1.13047e-05
9.51383e-06
7.55822e-06
7.72325e-06
9.33064e-06
9.37339e-06
8.52576e-06
8.89555e-06
1.26481e-05
1.51669e-05
8.61679e-06
2.85454e-06
2.10579e-06
8.95693e-06
8.6274e-06
8.14241e-06
7.93314e-06
8.60591e-06
9.49124e-06
9.84472e-06
9.08895e-06
8.73363e-06
1.06216e-05
1.09213e-05
8.9285e-06
7.57828e-06
8.51342e-06
9.40628e-06
8.64721e-06
7.53103e-06
9.06867e-06
1.41657e-05
1.45463e-05
7.43535e-06
2.1676e-06
1.83967e-06
1.01665e-05
9.12492e-06
8.8022e-06
8.02804e-06
7.94989e-06
8.70283e-06
9.35462e-06
9.20223e-06
8.29647e-06
9.19087e-06
1.09795e-05
1.03489e-05
8.28213e-06
7.97586e-06
9.06696e-06
9.24653e-06
7.81124e-06
6.96554e-06
1.01202e-05
1.5291e-05
1.39557e-05
6.27979e-06
1.56964e-06
1.84603e-06
1.11693e-05
9.43099e-06
9.497e-06
8.825e-06
8.18238e-06
8.31758e-06
8.81676e-06
9.26746e-06
8.46916e-06
8.10065e-06
9.88795e-06
1.08451e-05
9.46483e-06
8.0773e-06
8.53737e-06
9.52106e-06
9.11195e-06
6.96435e-06
7.19235e-06
1.1601e-05
1.58839e-05
1.35878e-05
5.22885e-06
1.23421e-06
1.75117e-06
1.1487e-05
9.41562e-06
9.71687e-06
9.63934e-06
8.97635e-06
8.48623e-06
8.5524e-06
9.21613e-06
9.02189e-06
7.87178e-06
8.63779e-06
1.01875e-05
1.03755e-05
8.81336e-06
8.28538e-06
9.17647e-06
1.0155e-05
8.50795e-06
6.54531e-06
8.03834e-06
1.2558e-05
1.6854e-05
1.32704e-05
4.33278e-06
9.48321e-07
1.48747e-06
1.14175e-05
9.21542e-06
9.43878e-06
9.8739e-06
9.6985e-06
9.00932e-06
8.65316e-06
9.07924e-06
9.51406e-06
8.43353e-06
8.00532e-06
9.05136e-06
1.04018e-05
9.74738e-06
8.58752e-06
8.64583e-06
1.00243e-05
1.02309e-05
7.74176e-06
6.63186e-06
8.63171e-06
1.37442e-05
1.78429e-05
1.25001e-05
3.75944e-06
7.09827e-07
1.13317e-06
1.15651e-05
9.03588e-06
9.01959e-06
9.50759e-06
9.85407e-06
9.49533e-06
8.98956e-06
8.95638e-06
9.61014e-06
9.2975e-06
8.1822e-06
8.25129e-06
9.64829e-06
1.02235e-05
9.29634e-06
8.49071e-06
9.10363e-06
1.06418e-05
9.64216e-06
7.19259e-06
6.75228e-06
9.22266e-06
1.48667e-05
1.80786e-05
1.24932e-05
3.56001e-06
4.71546e-07
8.08046e-07
1.28988e-05
8.98139e-06
8.79562e-06
8.97823e-06
9.47462e-06
9.63459e-06
9.32032e-06
8.93473e-06
9.3319e-06
9.82878e-06
8.88766e-06
8.16319e-06
8.75986e-06
9.93037e-06
9.89765e-06
8.88042e-06
8.36917e-06
9.72116e-06
1.06257e-05
8.8274e-06
6.93964e-06
6.76072e-06
9.73629e-06
1.54728e-05
1.88648e-05
1.36396e-05
3.33373e-06
2.51646e-07
6.27817e-07
1.60988e-05
9.02937e-06
8.85716e-06
8.69514e-06
8.96874e-06
9.41754e-06
9.45333e-06
9.02806e-06
8.97072e-06
9.72877e-06
9.56216e-06
8.68378e-06
8.30173e-06
9.18695e-06
9.91776e-06
9.50552e-06
8.36599e-06
8.618e-06
1.01336e-05
1.01337e-05
8.39472e-06
6.58563e-06
6.77699e-06
1.01101e-05
1.58241e-05
2.06199e-05
1.53465e-05
2.74814e-06
1.05117e-07
6.51658e-07
2.05078e-05
9.09966e-06
9.07369e-06
8.77121e-06
8.6992e-06
9.07563e-06
9.36103e-06
9.17181e-06
8.80105e-06
9.23675e-06
9.74425e-06
9.37025e-06
8.44178e-06
8.56985e-06
9.38506e-06
9.82876e-06
8.98688e-06
8.20565e-06
9.06583e-06
1.02114e-05
9.82818e-06
7.9284e-06
6.36044e-06
6.92305e-06
9.80922e-06
1.60779e-05
2.34521e-05
1.66139e-05
1.73074e-06
4.50465e-08
9.78617e-07
2.53299e-05
9.13431e-06
9.24474e-06
9.0521e-06
8.76341e-06
8.8505e-06
9.1581e-06
9.27029e-06
8.89943e-06
8.8044e-06
9.42923e-06
9.72106e-06
8.97385e-06
8.43393e-06
8.76114e-06
9.58391e-06
9.66114e-06
8.59328e-06
8.43047e-06
9.47587e-06
1.02004e-05
9.55171e-06
7.64909e-06
6.43686e-06
6.49236e-06
8.85824e-06
1.69873e-05
2.70485e-05
1.58917e-05
7.70765e-07
3.37273e-08
2.16229e-06
2.94306e-05
9.12902e-06
9.2609e-06
9.28687e-06
9.02389e-06
8.83831e-06
8.9872e-06
9.26328e-06
9.14344e-06
8.70832e-06
8.97764e-06
9.56063e-06
9.48028e-06
8.76418e-06
8.48363e-06
9.01966e-06
9.81775e-06
9.31831e-06
8.53514e-06
8.8239e-06
9.66482e-06
1.02379e-05
9.36128e-06
7.73873e-06
6.2647e-06
5.43309e-06
8.04526e-06
1.90442e-05
3.02874e-05
1.26227e-05
2.98085e-07
6.37886e-08
5.1127e-06
3.14626e-05
9.11073e-06
9.1595e-06
9.32525e-06
9.25658e-06
8.98135e-06
8.92675e-06
9.16387e-06
9.32921e-06
8.93079e-06
8.73963e-06
9.1281e-06
9.62456e-06
9.25966e-06
8.67727e-06
8.59744e-06
9.40655e-06
9.73598e-06
9.07611e-06
8.69963e-06
9.03061e-06
9.88621e-06
1.01599e-05
9.40035e-06
8.10527e-06
5.63334e-06
4.26565e-06
7.9056e-06
2.24569e-05
3.16203e-05
8.6926e-06
1.64946e-07
2.31707e-07
1.02922e-05
3.10929e-05
9.10115e-06
9.05107e-06
9.20178e-06
9.31921e-06
9.1486e-06
8.97156e-06
9.04094e-06
9.32921e-06
9.2456e-06
8.8237e-06
8.78835e-06
9.39594e-06
9.55429e-06
9.14366e-06
8.59059e-06
8.855e-06
9.57314e-06
9.49865e-06
8.98022e-06
8.80629e-06
9.25183e-06
9.87352e-06
1.00058e-05
1.01751e-05
8.49724e-06
4.5834e-06
3.4126e-06
8.89772e-06
2.67973e-05
3.03053e-05
5.52731e-06
2.08984e-07
9.40274e-07
1.76447e-05
2.72877e-05
9.10166e-06
9.01474e-06
9.054e-06
9.22736e-06
9.23577e-06
9.06564e-06
8.96756e-06
9.17388e-06
9.40594e-06
9.09882e-06
8.74128e-06
9.04699e-06
9.49215e-06
9.52187e-06
8.94844e-06
8.59061e-06
9.1037e-06
9.47965e-06
9.27e-06
8.96407e-06
8.92711e-06
9.29207e-06
9.5392e-06
1.05068e-05
1.16697e-05
8.30942e-06
3.45154e-06
3.12893e-06
1.13164e-05
3.04397e-05
2.58955e-05
3.65201e-06
4.66383e-07
3.14306e-06
2.75327e-05
1.73613e-05
9.10285e-06
9.05302e-06
8.98974e-06
9.09323e-06
9.22157e-06
9.14886e-06
8.97743e-06
8.99622e-06
9.32697e-06
9.33099e-06
8.94655e-06
8.83506e-06
9.20886e-06
9.56356e-06
9.37824e-06
8.7373e-06
8.76237e-06
9.16184e-06
9.29376e-06
9.18301e-06
8.97084e-06
9.03703e-06
8.97268e-06
9.34529e-06
1.18777e-05
1.31262e-05
7.35386e-06
2.60405e-06
3.50803e-06
1.45507e-05
3.12566e-05
1.96253e-05
2.84856e-06
1.14835e-06
9.07892e-06
3.95967e-05
6.60927e-06
9.09975e-06
9.11519e-06
9.02363e-06
9.01547e-06
9.15184e-06
9.18802e-06
9.05294e-06
8.91486e-06
9.11511e-06
9.36524e-06
9.20907e-06
8.8506e-06
8.95283e-06
9.31276e-06
9.57066e-06
9.11687e-06
8.75928e-06
8.8947e-06
9.10949e-06
9.20937e-06
9.11403e-06
9.13488e-06
8.94606e-06
8.28925e-06
9.60008e-06
1.38336e-05
1.37917e-05
5.90062e-06
2.17203e-06
4.45639e-06
1.74668e-05
2.83059e-05
1.39446e-05
2.57112e-06
2.91363e-06
2.43777e-05
4.80263e-05
1.98359e-06
9.09633e-06
9.14981e-06
9.09936e-06
9.0202e-06
9.0854e-06
9.18135e-06
9.14346e-06
8.96097e-06
8.94152e-06
9.22325e-06
9.33925e-06
9.01341e-06
8.87587e-06
9.00915e-06
9.43884e-06
9.42288e-06
9.00677e-06
8.87921e-06
8.95653e-06
9.06726e-06
9.11783e-06
9.25437e-06
9.35723e-06
8.26076e-06
7.56912e-06
1.05175e-05
1.5824e-05
1.31402e-05
4.43233e-06
2.12872e-06
5.98489e-06
1.87675e-05
2.31593e-05
9.57044e-06
2.56461e-06
8.50613e-06
5.14227e-05
4.5515e-05
1.66237e-06
9.09858e-06
9.14152e-06
9.15148e-06
9.07228e-06
9.05407e-06
9.14568e-06
9.19865e-06
9.08039e-06
8.90709e-06
9.04351e-06
9.28564e-06
9.17221e-06
8.96463e-06
8.8608e-06
9.146e-06
9.46252e-06
9.25994e-06
9.05894e-06
8.98434e-06
8.95286e-06
8.99213e-06
9.14396e-06
9.65507e-06
9.14025e-06
7.16913e-06
7.30449e-06
1.20087e-05
1.70757e-05
1.12688e-05
3.45567e-06
2.57904e-06
7.79946e-06
1.81253e-05
1.78394e-05
5.89077e-06
3.09745e-06
2.23063e-05
7.56733e-05
4.61519e-05
3.7098e-06
9.10668e-06
9.11002e-06
9.15358e-06
9.12121e-06
9.05731e-06
9.10224e-06
9.19628e-06
9.18662e-06
8.99809e-06
8.9508e-06
9.13772e-06
9.2253e-06
9.10034e-06
8.91474e-06
8.92163e-06
9.28122e-06
9.33382e-06
9.23258e-06
9.14331e-06
8.99908e-06
8.91162e-06
8.88432e-06
9.449e-06
1.0062e-05
8.35967e-06
6.2367e-06
7.63211e-06
1.37271e-05
1.70598e-05
9.19241e-06
3.22505e-06
3.59144e-06
9.19189e-06
1.66745e-05
1.23133e-05
2.77442e-06
4.17837e-06
3.83922e-05
8.19226e-05
5.119e-05
1.62637e-05
9.11457e-06
9.08432e-06
9.12283e-06
9.13945e-06
9.07846e-06
9.06881e-06
9.14914e-06
9.22181e-06
9.12619e-06
8.97757e-06
9.02118e-06
9.17781e-06
9.17049e-06
9.07274e-06
8.88533e-06
9.06517e-06
9.23446e-06
9.25223e-06
9.26699e-06
9.16454e-06
8.99449e-06
8.7393e-06
8.91235e-06
1.01374e-05
1.01506e-05
7.30837e-06
5.74696e-06
8.52107e-06
1.52619e-05
1.59622e-05
7.76728e-06
3.73742e-06
4.83942e-06
1.01886e-05
1.49497e-05
5.84581e-06
8.67854e-07
4.80579e-06
4.19056e-05
6.98824e-05
5.98806e-05
0.000264295
9.11586e-06
9.07944e-06
9.09206e-06
9.13037e-06
9.10172e-06
9.05647e-06
9.09076e-06
9.18562e-06
9.20392e-06
9.07094e-06
9.0005e-06
9.10353e-06
9.14846e-06
9.19277e-06
9.00301e-06
8.96372e-06
9.09935e-06
9.14018e-06
9.24022e-06
9.29599e-06
9.19079e-06
8.86284e-06
8.51882e-06
9.3773e-06
1.0972e-05
9.68505e-06
6.37041e-06
5.78336e-06
9.87542e-06
1.60687e-05
1.42068e-05
7.34269e-06
4.64919e-06
5.99395e-06
1.16399e-05
1.14586e-05
1.24621e-06
1.82618e-07
4.24025e-06
3.13333e-05
4.33333e-05
3.98978e-05
0.00178564
9.10953e-06
9.09138e-06
9.08131e-06
9.1122e-06
9.11863e-06
9.06732e-06
9.05292e-06
9.11925e-06
9.20107e-06
9.15175e-06
9.05603e-06
9.06796e-06
9.08709e-06
9.19808e-06
9.15024e-06
9.00078e-06
9.04738e-06
9.02987e-06
9.0982e-06
9.27864e-06
9.34129e-06
9.17069e-06
8.56529e-06
8.53073e-06
1.02464e-05
1.14393e-05
8.83815e-06
5.79925e-06
6.33419e-06
1.12068e-05
1.55803e-05
1.2649e-05
7.64371e-06
5.4092e-06
7.62644e-06
1.39515e-05
6.15242e-06
9.12949e-08
5.05908e-08
2.9008e-06
1.09756e-05
1.56045e-05
0.000531284
0.00436094
9.10002e-06
9.10666e-06
9.08949e-06
9.09936e-06
9.12611e-06
9.09357e-06
9.04961e-06
9.0678e-06
9.14711e-06
9.17451e-06
9.1239e-06
9.08408e-06
9.05338e-06
9.11577e-06
9.21622e-06
9.10029e-06
9.0926e-06
9.02556e-06
8.97282e-06
9.13454e-06
9.32841e-06
9.4249e-06
8.98563e-06
8.22262e-06
8.90038e-06
1.11501e-05
1.13319e-05
7.94615e-06
5.64826e-06
7.16177e-06
1.17739e-05
1.42016e-05
1.19873e-05
7.82262e-06
6.11611e-06
1.1464e-05
1.64057e-05
2.49229e-06
1.32829e-08
9.41515e-08
8.45975e-07
5.19154e-07
0.000204607
0.00295129
0.00632896
9.0933e-06
9.11475e-06
9.10363e-06
9.09543e-06
9.12372e-06
9.12058e-06
9.07399e-06
9.05289e-06
9.09229e-06
9.14729e-06
9.15366e-06
9.12134e-06
9.0734e-06
9.02897e-06
9.17542e-06
9.16823e-06
9.16438e-06
9.12257e-06
8.96706e-06
8.98454e-06
9.17531e-06
9.44445e-06
9.44194e-06
8.56115e-06
8.0405e-06
9.55099e-06
1.1751e-05
1.07493e-05
7.21902e-06
5.8587e-06
7.89051e-06
1.13489e-05
1.32564e-05
1.17142e-05
7.32982e-06
8.13541e-06
1.9245e-05
1.81318e-05
1.59293e-06
6.60834e-08
1.48306e-07
2.30256e-09
2.22498e-06
0.00196859
0.00534214
0.00779622
9.09236e-06
9.1136e-06
9.11237e-06
9.09707e-06
9.11346e-06
9.13452e-06
9.1067e-06
9.06879e-06
9.06816e-06
9.10762e-06
9.13915e-06
9.14309e-06
9.12502e-06
9.00313e-06
9.0819e-06
9.16302e-06
9.1863e-06
9.23038e-06
9.07993e-06
8.93653e-06
9.00567e-06
9.25336e-06
9.60278e-06
9.21004e-06
8.07241e-06
8.1773e-06
1.02626e-05
1.18738e-05
9.90194e-06
6.85857e-06
6.36063e-06
8.11074e-06
1.07754e-05
1.3234e-05
1.05227e-05
6.83715e-06
1.30766e-05
2.91566e-05
1.92112e-05
2.73675e-06
7.31714e-07
6.92652e-08
5.5773e-09
0.000992765
0.00462625
0.00708202
0.00886471
9.09647e-06
9.10751e-06
9.11271e-06
9.10037e-06
9.1006e-06
9.13e-06
9.12883e-06
9.09539e-06
9.07498e-06
9.08603e-06
9.10747e-06
9.13628e-06
9.16758e-06
9.04786e-06
9.01007e-06
9.10784e-06
9.14052e-06
9.25843e-06
9.222e-06
9.01092e-06
8.92998e-06
9.02364e-06
9.41698e-06
9.66051e-06
8.76597e-06
7.79539e-06
8.57173e-06
1.0802e-05
1.15391e-05
9.19158e-06
7.03335e-06
6.80647e-06
7.88937e-06
1.1067e-05
1.29887e-05
7.92732e-06
7.14333e-06
2.00687e-05
3.50268e-05
2.0721e-05
8.25866e-06
5.39276e-06
5.69369e-07
0.000371453
0.00370113
0.00656164
0.00837528
0.00960113
9.10257e-06
9.10185e-06
9.10816e-06
9.10356e-06
9.09174e-06
9.11283e-06
9.13183e-06
9.11473e-06
9.09392e-06
9.08781e-06
9.08717e-06
9.1131e-06
9.17588e-06
9.12624e-06
9.00178e-06
9.05289e-06
9.06918e-06
9.189e-06
9.29184e-06
9.14414e-06
8.97322e-06
8.90865e-06
9.10053e-06
9.64181e-06
9.52133e-06
8.3334e-06
7.80155e-06
9.0642e-06
1.10563e-05
1.0999e-05
8.99782e-06
7.49886e-06
6.74487e-06
8.01796e-06
1.21761e-05
1.05814e-05
5.10818e-06
8.10908e-06
2.47866e-05
3.39799e-05
2.54231e-05
2.83671e-05
1.52901e-05
7.1004e-05
0.00266512
0.00591494
0.00800588
0.00929727
0.0100635
9.10773e-06
9.09921e-06
9.1036e-06
9.10625e-06
9.09116e-06
9.09498e-06
9.11972e-06
9.12013e-06
9.10714e-06
9.09943e-06
9.08686e-06
9.09257e-06
9.15249e-06
9.18951e-06
9.05163e-06
9.03255e-06
9.0269e-06
9.07951e-06
9.25137e-06
9.24634e-06
9.08201e-06
8.94184e-06
8.89596e-06
9.30198e-06
9.80196e-06
9.22135e-06
8.07149e-06
8.02646e-06
9.52919e-06
1.09746e-05
1.05911e-05
9.31227e-06
7.53476e-06
6.46743e-06
9.25752e-06
1.24177e-05
6.38067e-06
3.33359e-06
9.22497e-06
2.43458e-05
2.94377e-05
3.7457e-05
6.53144e-05
4.00661e-05
0.00166166
0.00520815
0.00754332
0.0090506
0.00991086
0.0103032
9.11061e-06
9.09969e-06
9.10142e-06
9.10779e-06
9.09798e-06
9.08669e-06
9.10344e-06
9.11532e-06
9.10926e-06
9.10624e-06
9.09661e-06
9.08369e-06
9.11623e-06
9.20815e-06
9.12405e-06
9.04957e-06
9.03617e-06
9.00585e-06
9.14239e-06
9.26476e-06
9.18064e-06
9.05215e-06
8.89145e-06
8.97165e-06
9.5576e-06
9.77139e-06
8.90337e-06
8.01868e-06
8.37902e-06
9.75879e-06
1.06124e-05
1.06238e-05
9.50755e-06
6.87263e-06
6.90659e-06
1.15192e-05
1.02046e-05
3.20133e-06
2.84277e-06
9.84951e-06
1.8762e-05
2.4192e-05
5.50722e-05
9.76894e-05
0.00090285
0.00441971
0.0070251
0.00873689
0.0097642
0.0102717
0.0103648
9.11016e-06
9.10152e-06
9.10171e-06
9.10764e-06
9.10683e-06
9.09036e-06
9.09312e-06
9.10781e-06
9.10566e-06
9.10442e-06
9.10326e-06
9.08329e-06
9.08435e-06
9.18176e-06
9.18039e-06
9.08559e-06
9.0783e-06
9.00563e-06
9.04175e-06
9.20845e-06
9.22488e-06
9.14631e-06
9.0132e-06
8.85679e-06
9.13769e-06
9.71022e-06
9.58907e-06
8.68239e-06
8.13764e-06
8.66861e-06
9.57754e-06
1.03937e-05
1.10051e-05
8.81138e-06
6.29522e-06
8.97069e-06
1.34899e-05
6.81761e-06
2.0421e-06
3.32451e-06
8.17589e-06
9.55272e-06
1.83858e-05
6.95239e-05
0.00043749
0.00350313
0.00644516
0.00837356
0.00957209
0.0102057
0.0104286
0.0102867
9.10786e-06
9.10337e-06
9.10298e-06
9.10574e-06
9.1124e-06
9.10073e-06
9.09232e-06
9.10295e-06
9.10365e-06
9.10005e-06
9.10292e-06
9.08507e-06
9.06428e-06
9.12981e-06
9.19833e-06
9.11995e-06
9.11645e-06
9.06145e-06
9.00402e-06
9.12582e-06
9.21673e-06
9.18249e-06
9.12976e-06
8.94375e-06
8.88183e-06
9.30595e-06
9.70733e-06
9.3674e-06
8.59103e-06
8.34296e-06
8.67168e-06
9.25654e-06
1.07875e-05
1.09217e-05
7.41428e-06
6.96837e-06
1.2883e-05
1.3543e-05
4.58334e-06
2.21427e-06
3.77286e-06
3.58079e-06
2.04704e-06
1.46757e-05
0.00016704
0.00247667
0.00579923
0.00795741
0.00933693
0.0101121
0.0104268
0.0104241
0.0101017
9.10347e-06
9.10508e-06
9.1042e-06
9.10343e-06
9.11172e-06
9.1102e-06
9.09818e-06
9.10173e-06
9.10556e-06
9.10029e-06
9.10114e-06
9.08794e-06
9.05682e-06
9.07657e-06
9.17695e-06
9.14115e-06
9.12623e-06
9.12374e-06
9.03384e-06
9.06464e-06
9.18217e-06
9.18022e-06
9.16813e-06
9.08694e-06
8.885e-06
8.96786e-06
9.39879e-06
9.59848e-06
9.18458e-06
8.67092e-06
8.49157e-06
8.40094e-06
9.42977e-06
1.14971e-05
9.61374e-06
6.50877e-06
9.66707e-06
1.68843e-05
1.15941e-05
4.03566e-06
3.25895e-06
2.75965e-06
3.42069e-07
1.8421e-07
2.85371e-05
0.00148209
0.00507433
0.00748588
0.0090573
0.00998177
0.0104119
0.0104725
0.0102947
0.00983761
9.0994e-06
9.10597e-06
9.10527e-06
9.10237e-06
9.1073e-06
9.11309e-06
9.10503e-06
9.10235e-06
9.1087e-06
9.10592e-06
9.10447e-06
9.09553e-06
9.06202e-06
9.04108e-06
9.13124e-06
9.14723e-06
9.11015e-06
9.14937e-06
9.09505e-06
9.04639e-06
9.14351e-06
9.17619e-06
9.15059e-06
9.15908e-06
9.02921e-06
8.89043e-06
9.06145e-06
9.40358e-06
9.45231e-06
9.16101e-06
8.90644e-06
8.38348e-06
8.27709e-06
1.03737e-05
1.13793e-05
7.59427e-06
6.99319e-06
1.38864e-05
1.78466e-05
9.40316e-06
5.2359e-06
4.83849e-06
8.27083e-07
1.70792e-09
2.5371e-06
0.000680893
0.00423177
0.00695176
0.00873087
0.00981504
0.0103662
0.0105195
0.0103815
0.0100716
0.00951816
9.09728e-06
9.10595e-06
9.1058e-06
9.10245e-06
9.10308e-06
9.1104e-06
9.10833e-06
9.10282e-06
9.10902e-06
9.11198e-06
9.1125e-06
9.10996e-06
9.07986e-06
9.03317e-06
9.08287e-06
9.14118e-06
9.08922e-06
9.12836e-06
9.14098e-06
9.06406e-06
9.10971e-06
9.18147e-06
9.13978e-06
9.14469e-06
9.14315e-06
9.00764e-06
8.9446e-06
9.11936e-06
9.34556e-06
9.37236e-06
9.38384e-06
9.01947e-06
8.05274e-06
8.84008e-06
1.14483e-05
9.61279e-06
6.16105e-06
9.00901e-06
1.70245e-05
1.54024e-05
9.21429e-06
9.37871e-06
6.21435e-06
1.16949e-08
1.52216e-08
0.000244754
0.00324042
0.00634571
0.00835339
0.0096093
0.0102914
0.0105409
0.0104765
0.0101872
0.00978156
0.00916383
9.09798e-06
9.10516e-06
9.10583e-06
9.10396e-06
9.10057e-06
9.10559e-06
9.10792e-06
9.1026e-06
9.10559e-06
9.11252e-06
9.11881e-06
9.126e-06
9.10717e-06
9.05237e-06
9.05116e-06
9.12747e-06
9.08405e-06
9.08343e-06
9.14392e-06
9.09481e-06
9.08308e-06
9.17788e-06
9.16558e-06
9.11325e-06
9.15122e-06
9.1376e-06
9.03202e-06
9.00289e-06
9.12735e-06
9.24853e-06
9.47121e-06
9.66458e-06
8.68694e-06
8.00419e-06
1.01644e-05
1.12354e-05
7.09785e-06
6.05884e-06
1.18405e-05
1.67847e-05
1.28395e-05
1.29378e-05
1.8197e-05
6.29416e-06
7.69111e-10
1.0617e-05
0.00217178
0.00566673
0.00791913
0.00936171
0.0101847
0.0105399
0.0105503
0.0103184
0.00991817
0.00944749
0.00879246
9.10095e-06
9.10381e-06
9.10552e-06
9.1055e-06
9.10138e-06
9.10177e-06
9.10558e-06
9.10235e-06
9.10084e-06
9.10673e-06
9.11648e-06
9.13448e-06
9.13393e-06
9.08907e-06
9.04622e-06
9.11114e-06
9.10064e-06
9.04963e-06
9.1077e-06
9.11542e-06
9.06723e-06
9.14635e-06
9.20246e-06
9.127e-06
9.10269e-06
9.16055e-06
9.15609e-06
9.0719e-06
9.03491e-06
9.03973e-06
9.17901e-06
9.74739e-06
9.56178e-06
8.14286e-06
8.76649e-06
1.13834e-05
9.19893e-06
5.4859e-06
7.43311e-06
1.36937e-05
1.38878e-05
1.28043e-05
2.2168e-05
3.1586e-05
5.71778e-06
4.90682e-05
0.00119196
0.0049149
0.00742531
0.0090679
0.010044
0.0105133
0.0106073
0.0104323
0.0100761
0.00959892
0.00908941
0.00841994
9.1044e-06
9.10246e-06
9.10495e-06
9.1061e-06
9.10389e-06
9.10099e-06
9.10374e-06
9.1029e-06
9.09803e-06
9.09884e-06
9.10555e-06
9.12795e-06
9.14844e-06
9.12655e-06
9.06581e-06
9.09724e-06
9.12912e-06
9.05084e-06
9.05991e-06
9.11354e-06
9.06618e-06
9.09276e-06
9.20398e-06
9.18251e-06
9.08555e-06
9.09734e-06
9.17978e-06
9.18414e-06
9.10287e-06
8.97938e-06
8.85622e-06
9.28759e-06
9.9385e-06
8.91128e-06
8.0799e-06
1.03037e-05
1.11309e-05
6.78468e-06
5.48841e-06
9.65946e-06
1.26817e-05
1.07141e-05
1.58356e-05
3.66052e-05
4.32773e-05
1.96426e-06
0.000518244
0.00405159
0.00687389
0.00872445
0.00986578
0.0104595
0.0106445
0.0105344
0.01022
0.00977593
0.00925089
0.00872502
0.00806066
9.10649e-06
9.10175e-06
9.10427e-06
9.10562e-06
9.1058e-06
9.10282e-06
9.10332e-06
9.10421e-06
9.09929e-06
9.09426e-06
9.09285e-06
9.10891e-06
9.14234e-06
9.14956e-06
9.09677e-06
9.08901e-06
9.15169e-06
9.08825e-06
9.03265e-06
9.09153e-06
9.07822e-06
9.04627e-06
9.15257e-06
9.22545e-06
9.13391e-06
9.04617e-06
9.10244e-06
9.20581e-06
9.21153e-06
9.09731e-06
8.79382e-06
8.76252e-06
9.60307e-06
9.62995e-06
8.21679e-06
9.02008e-06
1.16469e-05
9.23883e-06
5.56944e-06
6.9524e-06
1.06706e-05
9.13619e-06
8.76952e-06
2.13024e-05
5.26061e-05
4.73486e-05
0.000185845
0.00303519
0.00626188
0.00833152
0.0096464
0.0103756
0.0106604
0.0106214
0.0103561
0.0099417
0.00944101
0.00889291
0.00837018
0.00772784
9.10644e-06
9.10208e-06
9.10371e-06
9.10459e-06
9.10614e-06
9.10489e-06
9.10422e-06
9.1056e-06
9.10257e-06
9.09648e-06
9.08612e-06
9.08787e-06
9.11945e-06
9.149e-06
9.12325e-06
9.08672e-06
9.15413e-06
9.14134e-06
9.04497e-06
9.06389e-06
9.09321e-06
9.03456e-06
9.07714e-06
9.20912e-06
9.20774e-06
9.07297e-06
9.02059e-06
9.12391e-06
9.23636e-06
9.25658e-06
9.01288e-06
8.5868e-06
8.977e-06
9.77294e-06
8.82455e-06
8.26614e-06
1.07819e-05
1.14475e-05
7.16508e-06
5.91223e-06
8.83911e-06
8.84383e-06
5.55181e-06
7.94719e-06
2.79578e-05
6.91775e-05
8.61986e-05
0.00195109
0.00557074
0.00788862
0.00938431
0.0102581
0.0106527
0.0106924
0.0104814
0.010103
0.0096221
0.00909157
0.00854186
0.00803933
0.00743357
9.10485e-06
9.1033e-06
9.10348e-06
9.1037e-06
9.10528e-06
9.1057e-06
9.10497e-06
9.10608e-06
9.10632e-06
9.10213e-06
9.09049e-06
9.07573e-06
9.0919e-06
9.12949e-06
9.13348e-06
9.08801e-06
9.13342e-06
9.18156e-06
9.09288e-06
9.04938e-06
9.09892e-06
9.06069e-06
9.02674e-06
9.13833e-06
9.24106e-06
9.1608e-06
9.01813e-06
9.02444e-06
9.15806e-06
9.30877e-06
9.30806e-06
8.83345e-06
8.59279e-06
9.39127e-06
9.3732e-06
8.18749e-06
9.46384e-06
1.21664e-05
9.63048e-06
6.26294e-06
7.56911e-06
9.35531e-06
5.54854e-06
3.22607e-06
7.23464e-06
3.40805e-05
8.10874e-05
0.00104526
0.00476337
0.00738445
0.00907869
0.0101043
0.0106179
0.0107453
0.0105952
0.010257
0.00980144
0.00928296
0.00874568
0.00821295
0.00774549
0.00718855
9.10304e-06
9.10473e-06
9.10368e-06
9.10339e-06
9.10421e-06
9.10519e-06
9.10478e-06
9.10535e-06
9.10761e-06
9.10854e-06
9.10067e-06
9.08034e-06
9.07313e-06
9.10281e-06
9.1277e-06
9.09087e-06
9.09816e-06
9.18657e-06
9.15355e-06
9.06073e-06
9.09059e-06
9.10115e-06
9.03006e-06
9.06161e-06
9.20435e-06
9.23921e-06
9.09962e-06
8.9937e-06
9.05163e-06
9.2234e-06
9.44234e-06
9.2641e-06
8.6724e-06
8.93079e-06
9.52679e-06
8.5509e-06
8.46305e-06
1.13613e-05
1.18056e-05
7.772e-06
7.01483e-06
9.71164e-06
7.8268e-06
2.9419e-06
1.66878e-06
5.49134e-06
3.61564e-05
0.000474997
0.00381547
0.00680072
0.00872378
0.00991234
0.010553
0.010777
0.0106955
0.0104032
0.00997636
0.0094747
0.00894356
0.00841955
0.00791989
0.00750013
0.00700162
9.10204e-06
9.10558e-06
9.10422e-06
9.10369e-06
9.1037e-06
9.10424e-06
9.10393e-06
9.10397e-06
9.10616e-06
9.11061e-06
9.11229e-06
9.09388e-06
9.07381e-06
9.08253e-06
9.11309e-06
9.0947e-06
9.06561e-06
9.15316e-06
9.19506e-06
9.0978e-06
9.07611e-06
9.12416e-06
9.07544e-06
9.02776e-06
9.12547e-06
9.25086e-06
9.20289e-06
9.05008e-06
8.99917e-06
9.08593e-06
9.34399e-06
9.5378e-06
9.07511e-06
8.75937e-06
9.35338e-06
9.00387e-06
8.03395e-06
9.84615e-06
1.257e-05
1.00127e-05
7.29975e-06
9.35325e-06
1.09035e-05
5.59444e-06
1.38365e-06
5.45209e-07
2.33394e-06
0.000160522
0.00278452
0.00614377
0.00830964
0.00967889
0.0104551
0.0107843
0.0107801
0.0105402
0.0101467
0.00966435
0.0091434
0.00862117
0.00812768
0.00767464
0.00731264
0.00687904
9.102e-06
9.10535e-06
9.10481e-06
9.10433e-06
9.10388e-06
9.1037e-06
9.10323e-06
9.10291e-06
9.10355e-06
9.10775e-06
9.11686e-06
9.11192e-06
9.085e-06
9.07905e-06
9.1003e-06
9.1012e-06
9.04915e-06
9.09833e-06
9.19644e-06
9.14469e-06
9.07055e-06
9.11434e-06
9.12268e-06
9.04881e-06
9.05905e-06
9.19489e-06
9.25889e-06
9.14745e-06
9.02542e-06
8.99904e-06
9.13151e-06
9.48661e-06
9.45616e-06
8.93471e-06
9.14075e-06
9.30833e-06
8.10751e-06
8.43589e-06
1.16583e-05
1.19808e-05
8.45525e-06
8.62395e-06
1.23327e-05
1.08385e-05
4.10878e-06
4.51058e-07
4.37871e-08
1.69128e-05
0.001798
0.00544865
0.00783768
0.00939834
0.0103212
0.0107636
0.0108453
0.010666
0.0103114
0.00985201
0.00934297
0.00882593
0.00833117
0.0078827
0.00748699
0.0071897
0.00682377
9.1024e-06
9.10421e-06
9.1051e-06
9.10492e-06
9.10442e-06
9.10387e-06
9.10327e-06
9.10277e-06
9.10179e-06
9.10269e-06
9.11286e-06
9.12175e-06
9.10475e-06
9.08402e-06
9.09635e-06
9.11009e-06
9.05904e-06
9.0475e-06
9.15577e-06
9.17996e-06
9.08501e-06
9.08204e-06
9.13532e-06
9.0962e-06
9.04066e-06
9.11646e-06
9.24309e-06
9.22384e-06
9.09808e-06
9.00184e-06
8.97317e-06
9.22041e-06
9.54199e-06
9.24985e-06
9.08962e-06
9.44027e-06
8.51825e-06
7.5908e-06
9.77042e-06
1.24785e-05
1.01457e-05
8.233e-06
1.13551e-05
1.48368e-05
1.13215e-05
3.48661e-06
3.53121e-08
2.69957e-08
0.000950786
0.00469979
0.00732744
0.00907022
0.0101477
0.0107115
0.0108873
0.0107771
0.0104687
0.0100371
0.00954265
0.0090318
0.00853861
0.00808689
0.00769492
0.00736393
0.00713458
0.00683352
9.10263e-06
9.10288e-06
9.1049e-06
9.10517e-06
9.10492e-06
9.10442e-06
9.10396e-06
9.10346e-06
9.10187e-06
9.09912e-06
9.10413e-06
9.11987e-06
9.1186e-06
9.09791e-06
9.09628e-06
9.11752e-06
9.08685e-06
9.02805e-06
9.09367e-06
9.18361e-06
9.11828e-06
9.0556e-06
9.10563e-06
9.12715e-06
9.06509e-06
9.06349e-06
9.18115e-06
9.24683e-06
9.1692e-06
9.06397e-06
8.95096e-06
8.9733e-06
9.33507e-06
9.42958e-06
9.18706e-06
9.48539e-06
9.09944e-06
7.48036e-06
7.96624e-06
1.12036e-05
1.14623e-05
8.55929e-06
9.42719e-06
1.44173e-05
1.76152e-05
1.46594e-05
3.09746e-06
5.78995e-07
0.000337487
0.00378793
0.00678727
0.00870613
0.00993365
0.0106247
0.0109022
0.0108696
0.0106157
0.0102182
0.0097422
0.0092394
0.00874814
0.00829555
0.00789921
0.00757169
0.00730893
0.00714523
0.00690679
9.10255e-06
9.10217e-06
9.10438e-06
9.10498e-06
9.10511e-06
9.1049e-06
9.10475e-06
9.10436e-06
9.1033e-06
9.09906e-06
9.0967e-06
9.10978e-06
9.12135e-06
9.10896e-06
9.09997e-06
9.12218e-06
9.11692e-06
9.04208e-06
9.04206e-06
9.15465e-06
9.15411e-06
9.05858e-06
9.05943e-06
9.11683e-06
9.09852e-06
9.05316e-06
9.11651e-06
9.22339e-06
9.21194e-06
9.13247e-06
9.03196e-06
8.89754e-06
9.0514e-06
9.35507e-06
9.27949e-06
9.48562e-06
9.6739e-06
8.09645e-06
6.99229e-06
9.09905e-06
1.1466e-05
9.43209e-06
8.07054e-06
1.12196e-05
1.69831e-05
2.31482e-05
2.2211e-05
2.54785e-06
2.98527e-05
0.00263942
0.00617589
0.00831772
0.00968628
0.010502
0.0108863
0.010939
0.0107483
0.0103927
0.0099407
0.00944885
0.00896064
0.00850698
0.00810828
0.00777594
0.00751682
0.00732013
0.00722009
0.00704487
9.10242e-06
9.10248e-06
9.10395e-06
9.10453e-06
9.10498e-06
9.10503e-06
9.10512e-06
9.10486e-06
9.10482e-06
9.10187e-06
9.0946e-06
9.09877e-06
9.11475e-06
9.11313e-06
9.1016e-06
9.11761e-06
9.14267e-06
9.08074e-06
9.02056e-06
9.10442e-06
9.17495e-06
9.0955e-06
9.03223e-06
9.07586e-06
9.10819e-06
9.06951e-06
9.07653e-06
9.17874e-06
9.22607e-06
9.17792e-06
9.12891e-06
8.98613e-06
8.90061e-06
9.13124e-06
9.23947e-06
9.40253e-06
1.00311e-05
9.22172e-06
7.12095e-06
7.42471e-06
1.0169e-05
1.02117e-05
7.80423e-06
8.26632e-06
1.20222e-05
1.93592e-05
3.32849e-05
3.03682e-05
8.25426e-07
0.00143565
0.00541196
0.00788769
0.00941711
0.0103479
0.0108373
0.0109809
0.0108615
0.0105565
0.0101358
0.00965966
0.00917651
0.00872222
0.00832052
0.0079851
0.00772121
0.00752863
0.00739592
0.00736022
0.00724426
9.10258e-06
9.10353e-06
9.10396e-06
9.10414e-06
9.10468e-06
9.10482e-06
9.10494e-06
9.10476e-06
9.1054e-06
9.10521e-06
9.09784e-06
9.09288e-06
9.10483e-06
9.11149e-06
9.10055e-06
9.10587e-06
9.14577e-06
9.12638e-06
9.04062e-06
9.0569e-06
9.16392e-06
9.14865e-06
9.04895e-06
9.03607e-06
9.08724e-06
9.08426e-06
9.06243e-06
9.13248e-06
9.21993e-06
9.20349e-06
9.18103e-06
9.126e-06
8.94317e-06
8.95339e-06
9.08334e-06
9.20171e-06
9.99352e-06
1.03389e-05
8.28602e-06
6.86974e-06
8.5363e-06
1.02709e-05
8.43496e-06
6.89971e-06
7.71344e-06
1.08574e-05
2.2353e-05
4.69229e-05
2.84816e-05
0.000587799
0.00444408
0.00736467
0.00912353
0.0101727
0.0107579
0.010992
0.0109505
0.0107047
0.0103237
0.00986986
0.00939564
0.00894196
0.00853712
0.00819764
0.00793054
0.0077336
0.00760547
0.00753717
0.00756171
0.00749852
9.10307e-06
9.1046e-06
9.10441e-06
9.10407e-06
9.10439e-06
9.10451e-06
9.10447e-06
9.10435e-06
9.1049e-06
9.10695e-06
9.10332e-06
9.09379e-06
9.09741e-06
9.10755e-06