/*--------------------------------*- C++ -*----------------------------------*\
  =========                 |
  \\      /  F ield         | OpenFOAM: The Open Source CFD Toolbox
   \\    /   O peration     | Website:  https://openfoam.org
    \\  /    A nd           | Version:  dev
     \\/     M anipulation  |
\*---------------------------------------------------------------------------*/
FoamFile
{
    version     2.0;
    format      ascii;
    class       volScalarField;
    location    "225";
    object      nuTilda;
}
// * * * * * * * * * * * * * * * * * * * * * * * * * * * * * * * * * * * * * //

dimensions      [0 2 -1 0 0 0 0];

internalField   nonuniform List<scalar> 
29380
(
6.23159e-05
7.55528e-05
5.71272e-05
7.5619e-05
7.28214e-05
5.97015e-05
6.60733e-05
7.86261e-05
6.87945e-05
6.05182e-05
5.42299e-05
7.04125e-05
7.17307e-05
6.65231e-05
5.79501e-05
4.71956e-05
5.62016e-05
6.57889e-05
6.75452e-05
5.7377e-05
5.8951e-05
4.8732e-05
4.6124e-05
5.57384e-05
6.24059e-05
5.98665e-05
5.69685e-05
5.61357e-05
5.68257e-05
4.64805e-05
4.88943e-05
5.5269e-05
6.06894e-05
5.8202e-05
5.39388e-05
5.337e-05
6.55707e-05
5.56756e-05
5.00203e-05
5.15068e-05
5.96428e-05
5.92429e-05
5.78185e-05
5.0812e-05
5.23434e-05
6.94492e-05
6.62726e-05
5.78664e-05
5.38446e-05
5.85255e-05
5.94988e-05
6.16086e-05
5.72232e-05
4.80534e-05
5.38878e-05
6.68573e-05
7.09676e-05
6.64464e-05
6.03908e-05
5.88717e-05
5.97052e-05
6.3233e-05
6.37366e-05
5.48285e-05
4.86271e-05
5.51482e-05
6.05745e-05
6.76332e-05
6.9766e-05
6.62707e-05
6.06771e-05
6.03844e-05
6.262e-05
6.68003e-05
6.31184e-05
5.34264e-05
5.05324e-05
5.60875e-05
5.52434e-05
5.99594e-05
6.61522e-05
6.74176e-05
6.24444e-05
6.13484e-05
6.08234e-05
6.55112e-05
6.83463e-05
6.06093e-05
5.41539e-05
5.29344e-05
5.55973e-05
5.40083e-05
5.39053e-05
5.89816e-05
6.34772e-05
6.25795e-05
6.18272e-05
5.92426e-05
6.13744e-05
6.83176e-05
6.62816e-05
5.96578e-05
5.58858e-05
5.4129e-05
5.40516e-05
5.6743e-05
5.31756e-05
5.3652e-05
5.77165e-05
6.08125e-05
6.1229e-05
5.86868e-05
5.72915e-05
6.37339e-05
6.80018e-05
6.42907e-05
5.94379e-05
5.80186e-05
5.34671e-05
5.24441e-05
6.08027e-05
5.71029e-05
5.348e-05
5.42972e-05
5.84282e-05
5.9768e-05
5.90885e-05
5.56309e-05
5.77851e-05
6.53262e-05
6.63042e-05
6.22679e-05
6.06988e-05
5.93972e-05
5.23499e-05
5.06502e-05
6.33089e-05
6.20021e-05
5.76758e-05
5.52108e-05
5.71987e-05
5.83805e-05
5.98322e-05
5.69203e-05
5.40504e-05
6.01896e-05
6.50126e-05
6.38944e-05
6.16739e-05
6.27488e-05
6.03906e-05
5.20195e-05
4.83976e-05
6.30927e-05
6.43582e-05
6.25732e-05
5.91644e-05
5.79768e-05
5.80173e-05
6.03125e-05
5.98246e-05
5.43808e-05
5.56879e-05
6.1348e-05
6.38829e-05
6.19214e-05
6.27118e-05
6.48665e-05
6.24521e-05
5.00298e-05
4.68147e-05
6.10409e-05
6.32144e-05
6.47111e-05
6.29717e-05
6.00945e-05
5.89193e-05
6.03179e-05
6.22536e-05
5.79875e-05
5.42722e-05
5.74001e-05
6.22075e-05
6.20298e-05
6.12416e-05
6.42173e-05
6.76321e-05
6.30956e-05
4.62809e-05
4.66754e-05
5.89769e-05
6.0237e-05
6.32222e-05
6.4084e-05
6.19692e-05
6.04505e-05
6.00481e-05
6.27811e-05
6.22133e-05
5.63707e-05
5.53316e-05
5.95316e-05
6.18097e-05
6.02997e-05
6.10506e-05
6.57068e-05
7.01446e-05
6.09039e-05
4.24071e-05
4.68885e-05
5.82032e-05
5.79257e-05
5.99248e-05
6.22591e-05
6.23397e-05
6.15883e-05
5.98493e-05
6.14395e-05
6.43948e-05
6.02843e-05
5.6148e-05
5.71816e-05
6.07774e-05
6.04108e-05
5.86978e-05
6.03374e-05
6.81685e-05
7.07619e-05
5.68529e-05
3.996e-05
4.66488e-05
5.87942e-05
5.76703e-05
5.7486e-05
5.93127e-05
6.11347e-05
6.1655e-05
5.99131e-05
5.94562e-05
6.3532e-05
6.34187e-05
5.91006e-05
5.64811e-05
5.9067e-05
6.06843e-05
5.86962e-05
5.64629e-05
6.11274e-05
7.06666e-05
6.9261e-05
5.40278e-05
3.67599e-05
4.62915e-05
5.99194e-05
5.9071e-05
5.73662e-05
5.74638e-05
5.93742e-05
6.07386e-05
6.01582e-05
5.82467e-05
6.06922e-05
6.4e-05
6.22039e-05
5.78364e-05
5.76489e-05
6.01792e-05
6.00896e-05
5.65995e-05
5.52905e-05
6.35917e-05
7.20757e-05
6.80051e-05
5.09327e-05
3.3294e-05
4.71641e-05
6.06809e-05
6.0693e-05
5.90714e-05
5.7718e-05
5.83041e-05
5.95402e-05
6.03431e-05
5.84453e-05
5.80129e-05
6.21009e-05
6.35647e-05
6.03582e-05
5.75804e-05
5.90177e-05
6.0975e-05
5.95064e-05
5.45175e-05
5.61869e-05
6.64812e-05
7.27333e-05
6.70641e-05
4.77866e-05
3.10909e-05
4.74903e-05
6.07314e-05
6.13529e-05
6.09632e-05
5.943e-05
5.85031e-05
5.88291e-05
6.02869e-05
5.9623e-05
5.71424e-05
5.93424e-05
6.25957e-05
6.24249e-05
5.90362e-05
5.82271e-05
6.04469e-05
6.20802e-05
5.7998e-05
5.36107e-05
5.85159e-05
6.82089e-05
7.39581e-05
6.62414e-05
4.48325e-05
2.87168e-05
4.66628e-05
6.03139e-05
6.08789e-05
6.16898e-05
6.11128e-05
5.9605e-05
5.89385e-05
6.00136e-05
6.07789e-05
5.82462e-05
5.7607e-05
6.02647e-05
6.28032e-05
6.10582e-05
5.86584e-05
5.92029e-05
6.22566e-05
6.20019e-05
5.62363e-05
5.41121e-05
6.00363e-05
7.03313e-05
7.522e-05
6.4744e-05
4.26014e-05
2.61012e-05
4.5065e-05
5.98842e-05
5.99429e-05
6.1063e-05
6.16521e-05
6.07236e-05
5.96362e-05
5.97227e-05
6.11358e-05
6.01741e-05
5.77636e-05
5.82676e-05
6.14677e-05
6.22706e-05
6.01197e-05
5.85955e-05
6.04144e-05
6.33854e-05
6.06554e-05
5.50377e-05
5.4592e-05
6.1568e-05
7.22863e-05
7.54059e-05
6.45306e-05
4.15612e-05
2.27259e-05
4.35713e-05
5.97232e-05
5.93412e-05
5.98867e-05
6.0979e-05
6.11502e-05
6.03849e-05
5.96258e-05
6.06316e-05
6.14839e-05
5.92787e-05
5.78011e-05
5.95107e-05
6.19334e-05
6.15191e-05
5.92665e-05
5.85198e-05
6.17978e-05
6.31701e-05
5.88839e-05
5.44823e-05
5.47993e-05
6.28627e-05
7.32836e-05
7.65759e-05
6.62029e-05
4.038e-05
1.83897e-05
4.38259e-05
5.98151e-05
5.93941e-05
5.91269e-05
5.98552e-05
6.07818e-05
6.07419e-05
5.97891e-05
5.98163e-05
6.14692e-05
6.08451e-05
5.88448e-05
5.82721e-05
6.04515e-05
6.18104e-05
6.06287e-05
5.81885e-05
5.92392e-05
6.2559e-05
6.20235e-05
5.79107e-05
5.36292e-05
5.49619e-05
6.3716e-05
7.41934e-05
7.92564e-05
6.84974e-05
3.76829e-05
1.37215e-05
4.70986e-05
5.99807e-05
5.98609e-05
5.91887e-05
5.91405e-05
6.00456e-05
6.06048e-05
6.00945e-05
5.93395e-05
6.04774e-05
6.14195e-05
6.0388e-05
5.83984e-05
5.89714e-05
6.08493e-05
6.15064e-05
5.94436e-05
5.79423e-05
6.0266e-05
6.25528e-05
6.13208e-05
5.6805e-05
5.30456e-05
5.53461e-05
6.33556e-05
7.53528e-05
8.3145e-05
6.98226e-05
3.2286e-05
1.04522e-05
5.25478e-05
6.00731e-05
6.02813e-05
5.97899e-05
5.91855e-05
5.9489e-05
6.01837e-05
6.03352e-05
5.9472e-05
5.94369e-05
6.08708e-05
6.12982e-05
5.95216e-05
5.84697e-05
5.94443e-05
6.12053e-05
6.10086e-05
5.86018e-05
5.85524e-05
6.10915e-05
6.24463e-05
6.06604e-05
5.61194e-05
5.32007e-05
5.41603e-05
6.18407e-05
7.7711e-05
8.73839e-05
6.81696e-05
2.46545e-05
1.02201e-05
5.95229e-05
6.0068e-05
6.03711e-05
6.0356e-05
5.9738e-05
5.93964e-05
5.97892e-05
6.03625e-05
5.99929e-05
5.90847e-05
5.98643e-05
6.11136e-05
6.0693e-05
5.90898e-05
5.8644e-05
6.00437e-05
6.15815e-05
6.02244e-05
5.85506e-05
5.94849e-05
6.14559e-05
6.24448e-05
6.02415e-05
5.63068e-05
5.24953e-05
5.11243e-05
6.08035e-05
8.16167e-05
9.03393e-05
6.26478e-05
1.77065e-05
1.45408e-05
6.7055e-05
6.0024e-05
6.01707e-05
6.05093e-05
6.02874e-05
5.96834e-05
5.96225e-05
6.01771e-05
6.0449e-05
5.95014e-05
5.92185e-05
6.02161e-05
6.11397e-05
6.01858e-05
5.89224e-05
5.8983e-05
6.08725e-05
6.13162e-05
5.9729e-05
5.90076e-05
5.99579e-05
6.18892e-05
6.22901e-05
6.03804e-05
5.69332e-05
5.03663e-05
4.74913e-05
6.15287e-05
8.66601e-05
9.0479e-05
5.52551e-05
1.41077e-05
2.36355e-05
7.3909e-05
5.99972e-05
5.99152e-05
6.02732e-05
6.04828e-05
6.0061e-05
5.9697e-05
5.99107e-05
6.05231e-05
6.02094e-05
5.93016e-05
5.93841e-05
6.07477e-05
6.09249e-05
5.99124e-05
5.87939e-05
5.96369e-05
6.1161e-05
6.079e-05
5.95841e-05
5.92833e-05
6.04518e-05
6.18625e-05
6.20936e-05
6.1945e-05
5.73909e-05
4.68645e-05
4.46698e-05
6.49012e-05
9.16373e-05
8.77622e-05
4.78217e-05
1.53891e-05
3.61088e-05
7.98422e-05
5.99974e-05
5.98043e-05
5.99331e-05
6.03162e-05
6.02808e-05
5.9896e-05
5.97271e-05
6.02276e-05
6.06391e-05
5.98831e-05
5.91677e-05
5.99858e-05
6.09043e-05
6.08087e-05
5.94953e-05
5.8889e-05
6.01778e-05
6.09115e-05
6.03131e-05
5.95774e-05
5.95777e-05
6.05094e-05
6.12435e-05
6.33326e-05
6.46214e-05
5.65139e-05
4.26961e-05
4.41866e-05
7.06954e-05
9.4747e-05
8.20418e-05
4.20502e-05
2.1199e-05
5.07013e-05
8.48183e-05
6.0003e-05
5.98707e-05
5.97543e-05
6.00166e-05
6.0274e-05
6.00828e-05
5.97191e-05
5.98268e-05
6.05475e-05
6.04391e-05
5.9565e-05
5.9446e-05
6.03307e-05
6.10231e-05
6.04588e-05
5.90818e-05
5.93128e-05
6.0264e-05
6.04823e-05
6.01327e-05
5.9615e-05
5.97708e-05
5.97866e-05
6.11347e-05
6.6208e-05
6.68152e-05
5.39593e-05
3.91166e-05
4.67787e-05
7.67114e-05
9.41317e-05
7.41616e-05
3.89948e-05
3.01247e-05
6.84485e-05
8.73326e-05
5.99984e-05
6.00106e-05
5.98043e-05
5.9819e-05
6.01287e-05
6.01784e-05
5.98652e-05
5.9603e-05
6.01086e-05
6.05895e-05
6.01572e-05
5.94119e-05
5.97284e-05
6.05573e-05
6.09802e-05
5.9889e-05
5.91812e-05
5.95934e-05
6.01087e-05
6.02923e-05
5.99965e-05
5.99421e-05
5.94533e-05
5.83941e-05
6.21697e-05
6.97281e-05
6.74313e-05
5.00806e-05
3.72461e-05
5.12739e-05
8.0692e-05
8.93477e-05
6.61344e-05
3.79865e-05
4.29776e-05
9.18157e-05
8.58583e-05
5.99894e-05
6.01017e-05
5.99708e-05
5.98081e-05
5.99769e-05
6.0174e-05
6.00614e-05
5.96639e-05
5.96923e-05
6.03261e-05
6.05007e-05
5.97508e-05
5.94941e-05
5.98767e-05
6.07982e-05
6.06185e-05
5.96857e-05
5.94577e-05
5.97049e-05
6.00074e-05
6.00998e-05
6.03147e-05
6.02978e-05
5.78284e-05
5.70286e-05
6.45365e-05
7.27514e-05
6.58725e-05
4.56857e-05
3.75242e-05
5.64575e-05
8.12535e-05
8.21875e-05
5.85629e-05
3.86581e-05
6.41866e-05
0.000117009
8.09168e-05
5.99907e-05
6.00962e-05
6.01011e-05
5.99183e-05
5.9899e-05
6.01038e-05
6.01951e-05
5.9912e-05
5.95643e-05
5.99241e-05
6.04371e-05
6.01234e-05
5.96578e-05
5.94797e-05
6.01867e-05
6.07978e-05
6.02816e-05
5.98224e-05
5.96853e-05
5.96936e-05
5.9844e-05
6.02091e-05
6.11255e-05
5.96066e-05
5.52319e-05
5.68336e-05
6.77021e-05
7.41948e-05
6.22486e-05
4.23071e-05
4.04173e-05
6.08522e-05
7.88976e-05
7.43576e-05
5.02262e-05
4.34453e-05
9.35555e-05
0.000132976
8.10063e-05
6.00063e-05
6.00294e-05
6.01208e-05
6.00335e-05
5.99003e-05
6.00125e-05
6.02084e-05
6.01566e-05
5.97342e-05
5.96802e-05
6.01248e-05
6.02767e-05
5.99686e-05
5.95444e-05
5.96451e-05
6.04551e-05
6.0513e-05
6.02473e-05
6.00142e-05
5.9717e-05
5.95996e-05
5.96586e-05
6.09292e-05
6.17676e-05
5.76508e-05
5.29576e-05
5.81107e-05
7.07452e-05
7.35487e-05
5.8066e-05
4.1612e-05
4.51761e-05
6.33531e-05
7.55062e-05
6.49075e-05
3.99471e-05
5.41721e-05
0.000118787
0.000137141
8.55564e-05
6.00247e-05
5.9967e-05
6.00578e-05
6.0083e-05
5.99447e-05
5.9938e-05
6.01184e-05
6.02574e-05
6.00172e-05
5.97054e-05
5.98429e-05
6.01916e-05
6.01564e-05
5.9887e-05
5.95009e-05
5.99659e-05
6.03323e-05
6.03564e-05
6.03326e-05
6.00551e-05
5.96995e-05
5.92343e-05
5.9831e-05
6.23283e-05
6.16366e-05
5.50645e-05
5.18578e-05
6.05548e-05
7.29342e-05
7.13735e-05
5.50298e-05
4.3914e-05
4.97016e-05
6.48753e-05
7.13948e-05
5.02908e-05
2.87993e-05
6.61254e-05
0.000124587
0.000131132
9.88433e-05
6.00309e-05
5.99491e-05
5.99849e-05
6.00673e-05
5.99953e-05
5.99051e-05
5.99925e-05
6.01967e-05
6.02094e-05
5.99027e-05
5.97656e-05
6.002e-05
6.01312e-05
6.01848e-05
5.97309e-05
5.96939e-05
6.00173e-05
6.01363e-05
6.03415e-05
6.03839e-05
6.01015e-05
5.93874e-05
5.88134e-05
6.09694e-05
6.38155e-05
6.04116e-05
5.26922e-05
5.22952e-05
6.36409e-05
7.37034e-05
6.83888e-05
5.42441e-05
4.73313e-05
5.33319e-05
6.70381e-05
6.35267e-05
3.00444e-05
2.03841e-05
6.82082e-05
0.000111022
0.000115507
0.000284953
6.00199e-05
5.9972e-05
5.99538e-05
6.00264e-05
6.00325e-05
5.99213e-05
5.99023e-05
6.00555e-05
6.02252e-05
6.00935e-05
5.98745e-05
5.99207e-05
5.99922e-05
6.02381e-05
6.0069e-05
5.97425e-05
5.98606e-05
5.98614e-05
6.0057e-05
6.04141e-05
6.04703e-05
6.00191e-05
5.87242e-05
5.90061e-05
6.28498e-05
6.4452e-05
5.84564e-05
5.12593e-05
5.41769e-05
6.6221e-05
7.25146e-05
6.58352e-05
5.51335e-05
4.99542e-05
5.79644e-05
6.96192e-05
5.03654e-05
1.14192e-05
1.66058e-05
5.83213e-05
7.83764e-05
7.39244e-05
0.00178607
5.99999e-05
6.00068e-05
5.99681e-05
5.99955e-05
6.00503e-05
5.99736e-05
5.98848e-05
5.99354e-05
6.01149e-05
6.01619e-05
6.00317e-05
5.99424e-05
5.9895e-05
6.00751e-05
6.02524e-05
5.9963e-05
5.9937e-05
5.97985e-05
5.97487e-05
6.01366e-05
6.05129e-05
6.06215e-05
5.95621e-05
5.80303e-05
6.00375e-05
6.45783e-05
6.39983e-05
5.64184e-05
5.10592e-05
5.65733e-05
6.7022e-05
7.00973e-05
6.47504e-05
5.56339e-05
5.25808e-05
6.6332e-05
7.1198e-05
3.70781e-05
4.47821e-06
1.58526e-05
3.51672e-05
3.54186e-05
0.000535085
0.00436101
5.99839e-05
6.00275e-05
6e-05
5.99855e-05
6.00478e-05
6.00327e-05
5.99313e-05
5.98929e-05
5.99888e-05
6.0111e-05
6.01135e-05
6.00258e-05
5.99175e-05
5.987e-05
6.01958e-05
6.01376e-05
6.01065e-05
5.99834e-05
5.96779e-05
5.97898e-05
6.02225e-05
6.07577e-05
6.05969e-05
5.86009e-05
5.77722e-05
6.15788e-05
6.5555e-05
6.27053e-05
5.47528e-05
5.18963e-05
5.83439e-05
6.59487e-05
6.84514e-05
6.41112e-05
5.47332e-05
5.89032e-05
7.84193e-05
7.17322e-05
3.21615e-05
1.0321e-05
1.48931e-05
1.38583e-05
0.000216649
0.00295144
0.00632899
5.998e-05
6.00272e-05
6.0022e-05
5.9989e-05
6.00283e-05
6.00678e-05
6.0002e-05
5.99221e-05
5.99261e-05
6.00206e-05
6.0092e-05
6.00847e-05
6.00241e-05
5.9783e-05
5.99974e-05
6.01523e-05
6.01867e-05
6.02342e-05
5.98879e-05
5.96349e-05
5.98415e-05
6.04035e-05
6.10668e-05
6.0016e-05
5.75238e-05
5.8265e-05
6.3072e-05
6.55834e-05
6.0932e-05
5.39712e-05
5.33901e-05
5.87016e-05
6.47663e-05
6.81646e-05
6.16168e-05
5.44671e-05
7.06365e-05
8.99514e-05
7.23518e-05
3.83019e-05
2.53977e-05
1.09989e-05
2.12215e-05
0.00196891
0.00534218
0.00779624
5.99875e-05
6.00144e-05
6.00248e-05
5.99964e-05
6.00012e-05
6.00639e-05
6.00543e-05
5.99804e-05
5.99359e-05
5.99651e-05
6.00214e-05
6.00797e-05
6.01249e-05
5.98567e-05
5.98221e-05
6.00413e-05
6.01115e-05
6.03371e-05
6.02022e-05
5.9757e-05
5.96341e-05
5.98922e-05
6.07677e-05
6.111e-05
5.89806e-05
5.6965e-05
5.92913e-05
6.40669e-05
6.47707e-05
5.94511e-05
5.45146e-05
5.4528e-05
5.81736e-05
6.52874e-05
6.70831e-05
5.62689e-05
5.72916e-05
8.33868e-05
9.55871e-05
7.46567e-05
5.49332e-05
4.76767e-05
1.87901e-05
0.000993928
0.00462631
0.00708204
0.00886472
6e-05
6.00012e-05
6.00153e-05
6.00032e-05
5.99803e-05
6.00296e-05
6.00663e-05
6.00259e-05
5.99788e-05
5.99645e-05
5.99699e-05
6.0032e-05
6.0156e-05
6.00202e-05
5.97784e-05
5.99136e-05
5.99566e-05
6.02212e-05
6.03902e-05
6.00375e-05
5.96929e-05
5.95906e-05
6.0087e-05
6.12216e-05
6.07154e-05
5.80011e-05
5.70889e-05
6.04314e-05
6.44168e-05
6.36373e-05
5.91046e-05
5.56765e-05
5.43834e-05
5.87137e-05
6.68909e-05
6.19074e-05
4.95941e-05
6.23011e-05
9.03166e-05
9.44815e-05
8.19905e-05
8.40436e-05
6.61328e-05
0.000380171
0.00370122
0.00656167
0.0083753
0.00960114
6.00115e-05
5.99948e-05
6.00045e-05
6.00088e-05
5.99762e-05
5.99898e-05
6.00431e-05
6.00407e-05
6.00118e-05
5.99916e-05
5.99643e-05
5.9985e-05
6.01148e-05
6.01655e-05
5.9869e-05
5.9855e-05
5.98475e-05
5.99881e-05
6.03421e-05
6.02775e-05
5.99184e-05
5.96252e-05
5.95771e-05
6.05503e-05
6.14954e-05
6.00075e-05
5.74395e-05
5.77109e-05
6.14073e-05
6.4136e-05
6.28689e-05
5.98207e-05
5.57315e-05
5.39416e-05
6.164e-05
6.61909e-05
5.20775e-05
4.45511e-05
6.63055e-05
8.89036e-05
9.09917e-05
9.9415e-05
0.000112889
0.000160636
0.0026653
0.00591497
0.0080059
0.00929728
0.0100636
6.00177e-05
5.99951e-05
5.99992e-05
6.00124e-05
5.99888e-05
5.99681e-05
6.00075e-05
6.00311e-05
6.00188e-05
6.00108e-05
5.99864e-05
5.99636e-05
6.00403e-05
6.02209e-05
6.00211e-05
5.98813e-05
5.98507e-05
5.98071e-05
6.01225e-05
6.03459e-05
6.01403e-05
5.98603e-05
5.9511e-05
5.97802e-05
6.11016e-05
6.13643e-05
5.92978e-05
5.73805e-05
5.85844e-05
6.18313e-05
6.3412e-05
6.30039e-05
6.01405e-05
5.4217e-05
5.56255e-05
6.56258e-05
6.07452e-05
4.17268e-05
4.34599e-05
6.69136e-05
8.05973e-05
8.92405e-05
0.000125308
0.000150448
0.00166218
0.0052082
0.00754334
0.00905062
0.00991087
0.0103032
6.00185e-05
5.99991e-05
5.99992e-05
6.00126e-05
6.00084e-05
5.99726e-05
5.99825e-05
6.0014e-05
6.001e-05
6.0009e-05
6.00043e-05
5.9963e-05
5.99721e-05
6.01784e-05
6.01489e-05
5.99552e-05
5.99376e-05
5.97818e-05
5.9893e-05
6.02442e-05
6.02494e-05
6.00792e-05
5.97673e-05
5.94489e-05
6.01842e-05
6.14012e-05
6.09371e-05
5.88267e-05
5.77241e-05
5.92425e-05
6.14123e-05
6.30513e-05
6.36548e-05
5.85415e-05
5.31577e-05
6.08719e-05
6.78157e-05
5.2536e-05
3.64394e-05
4.56843e-05
6.1338e-05
6.56221e-05
9.13437e-05
0.0001508
0.000904994
0.00441978
0.00702512
0.00873691
0.00976422
0.0102717
0.0103648
6.00136e-05
6.00035e-05
6.00021e-05
6.00092e-05
6.00216e-05
5.99944e-05
5.99782e-05
6.00023e-05
6.00031e-05
5.99978e-05
6.00048e-05
5.99675e-05
5.99284e-05
6.00753e-05
6.01996e-05
6.00296e-05
6.00279e-05
5.98924e-05
5.97878e-05
6.00689e-05
6.02405e-05
6.01682e-05
6.00453e-05
5.96061e-05
5.95344e-05
6.05669e-05
6.13628e-05
6.04489e-05
5.86585e-05
5.82206e-05
5.91974e-05
6.07695e-05
6.38288e-05
6.31904e-05
5.54654e-05
5.56877e-05
6.81959e-05
6.66195e-05
4.62142e-05
3.78678e-05
4.63712e-05
4.58452e-05
4.55066e-05
9.63211e-05
0.000445903
0.00350324
0.00644519
0.00837358
0.0095721
0.0102057
0.0104286
0.0102867
6.00056e-05
6.00064e-05
6.00051e-05
6.00042e-05
6.00227e-05
6.00158e-05
5.99901e-05
5.99992e-05
6.00059e-05
5.99948e-05
5.99986e-05
5.99716e-05
5.99103e-05
5.99628e-05
6.01661e-05
6.0077e-05
6.00598e-05
6.0035e-05
5.98358e-05
5.99279e-05
6.01696e-05
6.01589e-05
6.01508e-05
5.99391e-05
5.94763e-05
5.97485e-05
6.07617e-05
6.11063e-05
6.00574e-05
5.88555e-05
5.85041e-05
5.85696e-05
6.12395e-05
6.4919e-05
6.03272e-05
5.37366e-05
6.26219e-05
7.37424e-05
6.27428e-05
4.48288e-05
4.28302e-05
4.0242e-05
2.04613e-05
3.06132e-05
0.000183392
0.00247688
0.00579927
0.00795743
0.00933694
0.0101121
0.0104268
0.0104241
0.0101017
5.99966e-05
6.00087e-05
6.00069e-05
6.00008e-05
6.00134e-05
6.00251e-05
6.00054e-05
6.0001e-05
6.00133e-05
6.00055e-05
6.00019e-05
5.99832e-05
5.99164e-05
5.98823e-05
6.00762e-05
6.00923e-05
6.00293e-05
6.01081e-05
5.99676e-05
5.98777e-05
6.00892e-05
6.01395e-05
6.01089e-05
6.01319e-05
5.97946e-05
5.94933e-05
5.99633e-05
6.07569e-05
6.07791e-05
6.00178e-05
5.93393e-05
5.81922e-05
5.84074e-05
6.31594e-05
6.42111e-05
5.59672e-05
5.59467e-05
7.06601e-05
7.42233e-05
5.88187e-05
4.92637e-05
4.76763e-05
2.60294e-05
5.05141e-06
4.71338e-05
0.00148267
0.00507438
0.0074859
0.00905732
0.00998178
0.0104119
0.0104725
0.0102947
0.00983762
5.99913e-05
6.0009e-05
6.00083e-05
6.00013e-05
6.00026e-05
6.00197e-05
6.00144e-05
6.00026e-05
6.0016e-05
6.00197e-05
6.00181e-05
6.00096e-05
5.9948e-05
5.98568e-05
5.99737e-05
6.0082e-05
5.99791e-05
6.00769e-05
6.00799e-05
5.99104e-05
6.00207e-05
6.01496e-05
6.00622e-05
6.01118e-05
6.00855e-05
5.97337e-05
5.96165e-05
6.00893e-05
6.06181e-05
6.062e-05
6.04982e-05
5.95037e-05
5.74883e-05
5.98659e-05
6.48966e-05
6.03838e-05
5.28739e-05
6.15486e-05
7.49873e-05
7.02225e-05
5.9175e-05
5.94952e-05
5.03752e-05
8.7201e-06
6.62246e-05
0.000683027
0.00423184
0.00695179
0.00873089
0.00981505
0.0103662
0.0105196
0.0103815
0.0100716
0.00951818
5.99918e-05
6.00076e-05
6.00085e-05
6.00039e-05
5.99981e-05
6.00085e-05
6.00137e-05
6.00023e-05
6.00101e-05
6.00241e-05
6.00341e-05
6.00441e-05
6.00007e-05
5.98892e-05
5.99006e-05
6.00554e-05
5.99573e-05
5.99817e-05
6.01037e-05
5.99788e-05
5.99666e-05
6.01554e-05
6.0101e-05
6.00211e-05
6.01346e-05
6.00595e-05
5.97786e-05
5.97477e-05
6.0104e-05
6.04228e-05
6.08763e-05
6.10412e-05
5.87358e-05
5.76044e-05
6.2673e-05
6.39264e-05
5.4754e-05
5.33966e-05
6.72611e-05
7.36933e-05
6.65019e-05
6.7203e-05
7.35066e-05
4.81422e-05
6.96922e-06
0.000260082
0.00324053
0.00634574
0.00835341
0.00960931
0.0102914
0.010541
0.0104765
0.0101872
0.00978157
0.00916385
5.99975e-05
6.00049e-05
6.00079e-05
6.00074e-05
5.99982e-05
6.00009e-05
6.00085e-05
6.00015e-05
5.99996e-05
6.00139e-05
6.00339e-05
6.00665e-05
6.00582e-05
5.99614e-05
5.9882e-05
6.00224e-05
5.9984e-05
5.98973e-05
6.00367e-05
6.00311e-05
5.99317e-05
6.01065e-05
6.01878e-05
6.00202e-05
6.00201e-05
6.01572e-05
6.00874e-05
5.98627e-05
5.9821e-05
5.99217e-05
6.03337e-05
6.14747e-05
6.07235e-05
5.76228e-05
5.9602e-05
6.46774e-05
5.94611e-05
5.08186e-05
5.75114e-05
6.97248e-05
6.88327e-05
6.7772e-05
8.19513e-05
8.80572e-05
4.51804e-05
9.4741e-05
0.00217205
0.00566677
0.00791915
0.00936173
0.0101847
0.0105399
0.0105503
0.0103184
0.00991818
0.0094475
0.00879248
6.00049e-05
6.0002e-05
6.00068e-05
6.00091e-05
6.00035e-05
5.99978e-05
6.00044e-05
6.00021e-05
5.99929e-05
5.99963e-05
6.00137e-05
6.00597e-05
6.0094e-05
6.00418e-05
5.9917e-05
5.99933e-05
6.00425e-05
5.98829e-05
5.99317e-05
6.00365e-05
5.99258e-05
6.00011e-05
6.02172e-05
6.01305e-05
5.99467e-05
6.00276e-05
6.01957e-05
6.01387e-05
5.99298e-05
5.96959e-05
5.95549e-05
6.06365e-05
6.17791e-05
5.92881e-05
5.77553e-05
6.28461e-05
6.36203e-05
5.38922e-05
5.14081e-05
6.23376e-05
6.71318e-05
6.3852e-05
7.49517e-05
9.98757e-05
9.59189e-05
7.9341e-05
0.00119284
0.00491495
0.00742534
0.00906792
0.010044
0.0105133
0.0106074
0.0104324
0.0100761
0.00959894
0.00908943
0.00841996
6.00099e-05
6.00002e-05
6.00054e-05
6.00084e-05
6.00082e-05
6.00012e-05
6.00029e-05
6.00046e-05
5.99935e-05
5.99852e-05
5.99851e-05
6.00235e-05
6.00896e-05
6.00952e-05
5.99814e-05
5.99755e-05
6.0096e-05
5.99494e-05
5.98594e-05
5.99952e-05
5.9949e-05
5.98953e-05
6.01307e-05
6.02422e-05
6.00234e-05
5.98828e-05
6.00501e-05
6.02431e-05
6.01899e-05
5.9902e-05
5.92793e-05
5.9414e-05
6.12922e-05
6.09867e-05
5.78636e-05
6.01274e-05
6.5041e-05
5.95076e-05
5.09851e-05
5.57664e-05
6.35918e-05
6.00544e-05
6.13576e-05
8.58803e-05
0.00011574
7.43046e-05
0.000523554
0.00405166
0.00687391
0.00872446
0.00986579
0.0104595
0.0106445
0.0105344
0.01022
0.00977594
0.0092509
0.00872504
0.00806068
6.00105e-05
6.00005e-05
6.00042e-05
6.00063e-05
6.00095e-05
6.00061e-05
6.00046e-05
6.00076e-05
6.00006e-05
5.99866e-05
5.99687e-05
5.99768e-05
6.00463e-05
6.01022e-05
6.00399e-05
5.99702e-05
6.01112e-05
6.00601e-05
5.98673e-05
5.99344e-05
5.99833e-05
5.98558e-05
5.99726e-05
6.0238e-05
6.01851e-05
5.99001e-05
5.98467e-05
6.00965e-05
6.02973e-05
6.02679e-05
5.96778e-05
5.88389e-05
5.99446e-05
6.15076e-05
5.92056e-05
5.82526e-05
6.3707e-05
6.41413e-05
5.49055e-05
5.24883e-05
5.99059e-05
5.90176e-05
5.15061e-05
6.16111e-05
9.83303e-05
0.000128371
0.000233113
0.00303532
0.00626191
0.00833154
0.00964641
0.0103756
0.0106605
0.0106214
0.0103562
0.00994171
0.00944102
0.00889293
0.0083702
0.00772787
6.00073e-05
6.00028e-05
6.00036e-05
6.00042e-05
6.00078e-05
6.00085e-05
6.00067e-05
6.00092e-05
6.00087e-05
5.99988e-05
5.99727e-05
5.99487e-05
5.9987e-05
6.00654e-05
6.00672e-05
5.99731e-05
6.00765e-05
6.01538e-05
5.99569e-05
5.98937e-05
6.00012e-05
5.99019e-05
5.98488e-05
6.01039e-05
6.0284e-05
6.00744e-05
5.97967e-05
5.98657e-05
6.01625e-05
6.04406e-05
6.03358e-05
5.92555e-05
5.89243e-05
6.0805e-05
6.05044e-05
5.79156e-05
6.1096e-05
6.58789e-05
6.03454e-05
5.29962e-05
5.69663e-05
6.01664e-05
5.03694e-05
4.39575e-05
6.30849e-05
0.000111381
0.000159115
0.00195142
0.00557078
0.00788864
0.00938432
0.0102581
0.0106527
0.0106924
0.0104815
0.010103
0.00962212
0.00909159
0.00854187
0.00803935
0.00743359
6.00033e-05
6.00059e-05
6.00039e-05
6.00033e-05
6.00054e-05
6.00077e-05
6.00067e-05
6.0008e-05
6.00127e-05
6.00126e-05
5.9994e-05
5.99501e-05
5.99454e-05
6.00092e-05
6.00578e-05
5.99784e-05
6.00074e-05
6.01801e-05
6.00833e-05
5.99047e-05
5.99878e-05
5.99907e-05
5.98369e-05
5.99334e-05
6.02334e-05
6.02591e-05
5.99452e-05
5.97599e-05
5.99264e-05
6.03022e-05
6.0708e-05
6.01904e-05
5.89323e-05
5.97362e-05
6.09517e-05
5.86935e-05
5.88207e-05
6.47626e-05
6.47251e-05
5.64252e-05
5.53812e-05
6.12772e-05
5.60167e-05
4.09408e-05
3.64052e-05
6.34797e-05
0.000121243
0.00104648
0.00476343
0.00738447
0.0090787
0.0101043
0.0106179
0.0107453
0.0105952
0.010257
0.00980145
0.00928297
0.0087457
0.00821297
0.00774551
0.00718857
6.00009e-05
6.0008e-05
6.00049e-05
6.00038e-05
6.0004e-05
6.00055e-05
6.0005e-05
6.00052e-05
6.00104e-05
6.00193e-05
6.00187e-05
5.99789e-05
5.99363e-05
5.9965e-05
6.00276e-05
5.99852e-05
5.99345e-05
6.01242e-05
6.01825e-05
5.99721e-05
5.9955e-05
6.00522e-05
5.99272e-05
5.98413e-05
6.00732e-05
6.03139e-05
6.01702e-05
5.98514e-05
5.9783e-05
6.00069e-05
6.05727e-05
6.08747e-05
5.97644e-05
5.92093e-05
6.06125e-05
5.97181e-05
5.77171e-05
6.19864e-05
6.65232e-05
6.11157e-05
5.57163e-05
6.08576e-05
6.28767e-05
4.98353e-05
3.16773e-05
2.61455e-05
6.04827e-05
0.000480753
0.00381556
0.00680075
0.00872379
0.00991235
0.010553
0.0107771
0.0106956
0.0104032
0.00997637
0.00947472
0.00894357
0.00841956
0.00791991
0.00750015
0.00700165
6.00007e-05
6.0008e-05
6.00062e-05
6.00051e-05
6.00042e-05
6.0004e-05
6.00032e-05
6.00026e-05
6.00047e-05
6.00147e-05
6.00323e-05
6.00156e-05
5.9962e-05
5.99481e-05
5.99992e-05
5.99959e-05
5.98945e-05
6.00126e-05
6.02019e-05
6.00699e-05
5.99341e-05
6.0043e-05
6.00384e-05
5.98722e-05
5.99196e-05
6.02144e-05
6.03129e-05
6.00544e-05
5.98136e-05
5.97904e-05
6.01287e-05
6.08774e-05
6.06552e-05
5.95003e-05
6.00907e-05
6.03984e-05
5.77832e-05
5.8969e-05
6.5391e-05
6.5053e-05
5.80667e-05
5.92751e-05
6.62863e-05
6.21242e-05
4.47114e-05
2.10576e-05
1.15077e-05
0.000178019
0.00278469
0.00614381
0.00830966
0.00967891
0.0104551
0.0107843
0.0107801
0.0105403
0.0101467
0.00966437
0.00914342
0.00862119
0.0081277
0.00767466
0.00731267
0.00687907
6.00016e-05
6.00058e-05
6.0007e-05
6.00065e-05
6.00053e-05
6.00041e-05
6.0003e-05
6.0002e-05
6.00003e-05
6.00039e-05
6.00264e-05
6.00412e-05
5.99997e-05
5.99627e-05
5.99856e-05
6.00128e-05
5.99022e-05
5.99034e-05
6.01311e-05
6.015e-05
5.99537e-05
5.99768e-05
6.00832e-05
5.99761e-05
5.98641e-05
6.00473e-05
6.03018e-05
6.02293e-05
5.99607e-05
5.97693e-05
5.97467e-05
6.03472e-05
6.09593e-05
6.01992e-05
5.99021e-05
6.06664e-05
5.86191e-05
5.68512e-05
6.20537e-05
6.64873e-05
6.15218e-05
5.80972e-05
6.50848e-05
7.00312e-05
6.25671e-05
4.17083e-05
7.46637e-06
4.22276e-05
0.00179842
0.00544869
0.0078377
0.00939836
0.0103212
0.0107636
0.0108453
0.010666
0.0103114
0.00985202
0.00934299
0.00882595
0.00833118
0.00788272
0.00748702
0.00718973
0.0068238
6.00023e-05
6.00029e-05
6.00067e-05
6.00071e-05
6.00064e-05
6.00053e-05
6.00043e-05
6.00033e-05
5.99998e-05
5.99951e-05
6.00084e-05
6.0041e-05
6.00333e-05
5.99876e-05
5.99894e-05
6.00317e-05
5.99575e-05
5.98437e-05
6.00064e-05
6.0173e-05
6.00156e-05
5.99095e-05
6.00335e-05
6.00577e-05
5.9911e-05
5.99227e-05
6.01791e-05
6.02935e-05
6.01154e-05
5.98937e-05
5.96545e-05
5.97704e-05
6.05929e-05
6.06765e-05
6.00964e-05
6.07372e-05
5.9806e-05
5.63242e-05
5.809e-05
6.47495e-05
6.4322e-05
5.85167e-05
6.12848e-05
7.04923e-05
7.4079e-05
6.75769e-05
3.94391e-05
1.06302e-05
0.000952132
0.00469984
0.00732747
0.00907023
0.0101477
0.0107115
0.0108873
0.0107772
0.0104687
0.0100371
0.00954267
0.00903181
0.00853862
0.00808691
0.00769494
0.00736395
0.00713461
0.00683355
6.00022e-05
6.0001e-05
6.00057e-05
6.00069e-05
6.0007e-05
6.00064e-05
6.00061e-05
6.00053e-05
6.00026e-05
5.99936e-05
5.99912e-05
6.00211e-05
6.00426e-05
6.00138e-05
5.99958e-05
6.00401e-05
6.00287e-05
5.98675e-05
5.98865e-05
6.01229e-05
6.00943e-05
5.98991e-05
5.99314e-05
6.00536e-05
5.99908e-05
5.98922e-05
6.00389e-05
6.02534e-05
6.02107e-05
6.00431e-05
5.98139e-05
5.95393e-05
5.99647e-05
6.0606e-05
6.03503e-05
6.07502e-05
6.09834e-05
5.75055e-05
5.53849e-05
6.07641e-05
6.48486e-05
6.03041e-05
5.79302e-05
6.53359e-05
7.48958e-05
8.1923e-05
7.69058e-05
4.37532e-05
0.00034389
0.00378802
0.0067873
0.00870615
0.00993366
0.0106248
0.0109022
0.0108696
0.0106158
0.0102182
0.00974221
0.00923942
0.00874816
0.00829557
0.00789923
0.00757171
0.00730896
0.00714525
0.00690682
6.00018e-05
6.00013e-05
6.00046e-05
6.00059e-05
6.00068e-05
6.00068e-05
6.00071e-05
6.00065e-05
6.00061e-05
5.9999e-05
5.99846e-05
5.99968e-05
6.00305e-05
6.00244e-05
6.00011e-05
6.00366e-05
6.00743e-05
5.99472e-05
5.98354e-05
6.00242e-05
6.01444e-05
5.99647e-05
5.98581e-05
5.99706e-05
6.0027e-05
5.99288e-05
5.99493e-05
6.01632e-05
6.0243e-05
6.01416e-05
6.00326e-05
5.9698e-05
5.95667e-05
6.01432e-05
6.03403e-05
6.06401e-05
6.17794e-05
5.98292e-05
5.52537e-05
5.67083e-05
6.27542e-05
6.2082e-05
5.69288e-05
5.8895e-05
6.74873e-05
7.98017e-05
9.46381e-05
8.10481e-05
7.92377e-05
0.00263958
0.00617592
0.00831773
0.00968629
0.010502
0.0108863
0.010939
0.0107483
0.0103927
0.00994071
0.00944887
0.00896065
0.008507
0.00810829
0.00777596
0.00751684
0.00732015
0.00722011
0.0070449
6.00019e-05
6.00034e-05
6.00044e-05
6.0005e-05
6.00062e-05
6.00065e-05
6.00068e-05
6.00065e-05
6.00078e-05
6.00064e-05
5.99901e-05
5.9982e-05
6.00094e-05
6.00216e-05
5.99992e-05
6.00142e-05
6.00948e-05
6.00338e-05
5.98603e-05
5.99239e-05
6.01397e-05
6.00728e-05
5.98717e-05
5.98772e-05
5.99911e-05
5.99702e-05
5.99195e-05
6.00695e-05
6.02346e-05
6.01912e-05
6.01577e-05
6.00104e-05
5.96036e-05
5.97062e-05
6.00355e-05
6.02918e-05
6.18569e-05
6.21722e-05
5.76791e-05
5.48214e-05
5.93149e-05
6.25128e-05
5.82049e-05
5.49877e-05
5.80353e-05
6.66372e-05
8.68221e-05
0.000108407
7.62983e-05
0.0014361
0.005412
0.00788771
0.00941712
0.0103479
0.0108373
0.0109809
0.0108615
0.0105565
0.0101358
0.00965967
0.00917652
0.00872224
0.00832054
0.00798512
0.00772123
0.00752865
0.00739594
0.00736024
0.00724428
6.00028e-05
6.00058e-05
6.00053e-05
6.00047e-05
6.00055e-05
6.00058e-05
6.00058e-05
6.00056e-05
6.0007e-05
6.00109e-05
6.00017e-05
5.9982e-05
5.99923e-05
6.0013e-05
5.99959e-05
5.99859e-05
6.00638e-05
6.01065e-05
5.99433e-05
5.98628e-05
6.0071e-05
6.01668e-05
5.9975e-05
5.98448e-05
5.99182e-05
5.99721e-05
5.99198e-05
5.9989e-05
6.0194e-05
6.02243e-05
6.01754e-05
6.02156e-05
5.99229e-05
5.961e-05
5.96909e-05
5.97605e-05
6.11195e-05
6.33499e-05
6.12405e-05
5.60568e-05
5.66486e-05
6.13479e-05
6.0319e-05
5.50415e-05
5.22913e-05
5.26284e-05
6.40615e-05
9.62476e-05
0.000117428
0.000590715
0.00444414
0.00736469
0.00912355
0.0101727
0.0107579
0.0109921
0.0109505
0.0107048
0.0103238
0.00986987
0.00939566
0.00894198
0.00853714
0.00819766
0.00793056
0.00773362
0.00760549
0.00753719
0.00756173
0.00749854
6.0004e-05
6.0007e-05
6.00065e-05
6.00052e-05
6.00052e-05
6.00053e-05
6.00049e-05
6.00047e-05
6.0005e-05
6.00105e-05
6.00114e-05
5.99926e-05
5.99859e-05
6.00057e-05