/*--------------------------------*- C++ -*----------------------------------*\
  =========                 |
  \\      /  F ield         | OpenFOAM: The Open Source CFD Toolbox
   \\    /   O peration     | Website:  https://openfoam.org
    \\  /    A nd           | Version:  dev
     \\/     M anipulation  |
\*---------------------------------------------------------------------------*/
FoamFile
{
    version     2.0;
    format      ascii;
    class       surfaceScalarField;
    location    "225";
    object      phi;
}
// * * * * * * * * * * * * * * * * * * * * * * * * * * * * * * * * * * * * * //

dimensions      [0 3 -1 0 0 0 0];

internalField   nonuniform List<scalar> 
58294
(
-0.47322
7.48429e-05
-0.473227
6.76321e-05
-0.429519
6.90086e-05
-0.473231
6.2318e-05
-0.429516
6.44664e-05
-0.389789
7.05098e-05
-0.473236
5.82776e-05
-0.429514
6.05363e-05
-0.389789
6.41619e-05
-0.353797
6.35732e-05
-0.473241
5.47602e-05
-0.429513
5.71131e-05
-0.389788
5.99278e-05
-0.353792
5.95733e-05
-0.32108
6.01757e-05
-0.473246
5.15128e-05
-0.429512
5.40974e-05
-0.389788
5.70304e-05
-0.353789
5.65877e-05
-0.321076
5.55662e-05
-0.291412
5.28187e-05
-0.473251
4.84411e-05
-0.429512
5.13849e-05
-0.389789
5.46736e-05
-0.353786
5.44508e-05
-0.321072
5.28354e-05
-0.291406
4.96878e-05
-0.264467
4.66578e-05
-0.473257
4.54502e-05
-0.429512
4.87616e-05
-0.38979
5.25755e-05
-0.353785
5.28464e-05
-0.321069
5.14245e-05
-0.291401
4.78872e-05
-0.264461
4.36838e-05
-0.240024
3.90854e-05
-0.473262
4.25341e-05
-0.429513
4.6212e-05
-0.389792
5.05335e-05
-0.353784
5.14743e-05
-0.321066
5.05837e-05
-0.291396
4.72509e-05
-0.264456
4.24274e-05
-0.240018
3.70027e-05
-0.217828
3.18875e-05
-0.473268
3.96612e-05
-0.429514
4.36226e-05
-0.389794
4.84279e-05
-0.353783
5.0119e-05
-0.321065
5.00135e-05
-0.291393
4.72382e-05
-0.264451
4.25465e-05
-0.240012
3.64838e-05
-0.217821
3.02511e-05
-0.197688
2.44384e-05
-0.473274
3.68463e-05
-0.429515
4.1038e-05
-0.389796
4.6216e-05
-0.353783
4.86407e-05
-0.321064
4.94505e-05
-0.291391
4.75423e-05
-0.264447
4.33641e-05
-0.240006
3.72958e-05
-0.217814
3.02399e-05
-0.197681
2.33233e-05
-0.179407
1.71879e-05
-0.473279
3.40919e-05
-0.429517
3.84114e-05
-0.389799
4.38791e-05
-0.353784
4.69724e-05
-0.321064
4.87481e-05
-0.291389
4.78774e-05
-0.264444
4.45416e-05
-0.240002
3.88566e-05
-0.217809
3.1646e-05
-0.197674
2.38611e-05
-0.1794
1.65334e-05
-0.162815
1.02062e-05
-0.473285
3.14215e-05
-0.429518
3.58062e-05
-0.389802
4.1447e-05
-0.353785
4.50995e-05
-0.321065
4.78003e-05
-0.291388
4.80624e-05
-0.264442
4.58013e-05
-0.239998
4.08747e-05
-0.217804
3.38856e-05
-0.197668
2.57559e-05
-0.179394
1.74212e-05
-0.162808
9.82398e-06
-0.147758
3.4448e-06
-0.47329
2.88532e-05
-0.42952
3.32183e-05
-0.389805
3.89478e-05
-0.353787
4.30361e-05
-0.321067
4.65666e-05
-0.291388
4.79583e-05
-0.264441
4.69249e-05
-0.239995
4.30321e-05
-0.217799
3.66406e-05
-0.197663
2.85161e-05
-0.179388
1.96841e-05
-0.162802
1.10905e-05
-0.147752
3.43834e-06
-0.134094
-2.80148e-06
-0.473295
2.64122e-05
-0.429522
3.07008e-05
-0.389809
3.64257e-05
-0.353789
4.08196e-05
-0.321069
4.50379e-05
-0.291389
4.74946e-05
-0.26444
4.77526e-05
-0.239993
4.51162e-05
-0.217796
3.96418e-05
-0.197658
3.19083e-05
-0.179382
2.28853e-05
-0.162796
1.36178e-05
-0.147745
4.89016e-06
-0.134088
-2.72222e-06
-0.12169
-8.81587e-06
-0.4733
2.41134e-05
-0.429524
2.82701e-05
-0.389812
3.39116e-05
-0.353791
3.84928e-05
-0.321071
4.3236e-05
-0.291391
4.66296e-05
-0.264441
4.81688e-05
-0.239993
4.69242e-05
-0.217794
4.26468e-05
-0.197654
3.56403e-05
-0.179377
2.67634e-05
-0.16279
1.70835e-05
-0.147739
7.5751e-06
-0.134082
-1.03249e-06
-0.121685
-8.47066e-06
-0.110435
-1.41952e-05
-0.473304
2.19649e-05
-0.429526
2.59543e-05
-0.389815
3.14397e-05
-0.353793
3.60953e-05
-0.321074
4.12021e-05
-0.291393
4.53734e-05
-0.264443
4.81093e-05
-0.239993
4.83198e-05
-0.217792
4.54502e-05
-0.197651
3.9498e-05
-0.179372
3.11073e-05
-0.162785
2.13316e-05
-0.147734
1.12441e-05
-0.134076
1.72194e-06
-0.121679
-6.72008e-06
-0.110429
-1.39309e-05
-0.100221
-1.93538e-05
-0.473309
1.99701e-05
-0.429527
2.37686e-05
-0.389818
2.90352e-05
-0.353795
3.36721e-05
-0.321077
3.89797e-05
-0.291396
4.37532e-05
-0.264445
4.75476e-05
-0.239994
4.91925e-05
-0.217792
4.78779e-05
-0.197649
4.32562e-05
-0.179368
3.56967e-05
-0.16278
2.61348e-05
-0.147728
1.5706e-05
-0.13407
5.43567e-06
-0.121673
-3.96585e-06
-0.110424
-1.20405e-05
-0.100215
-1.89514e-05
-0.0909506
-2.38157e-05
-0.473313
1.81192e-05
-0.429529
2.17215e-05
-0.389821
2.6718e-05
-0.353798
3.12535e-05
-0.32108
3.66329e-05
-0.291399
4.18218e-05
-0.264448
4.65013e-05
-0.239996
4.94901e-05
-0.217792
4.97862e-05
-0.197648
4.67221e-05
-0.179366
4.03224e-05
-0.162775
3.13212e-05
-0.147723
2.08305e-05
-0.134065
1.00157e-05
-0.121667
-2.30527e-07
-0.110419
-9.35795e-06
-0.10021
-1.70769e-05
-0.0909459
-2.36641e-05
-0.0825385
-2.81001e-05
-0.473317
1.64064e-05
-0.429531
1.98188e-05
-0.389824
2.45145e-05
-0.3538
2.88799e-05
-0.321083
3.42058e-05
-0.291402
3.96455e-05
-0.264451
4.50065e-05
-0.239999
4.91917e-05
-0.217794
5.10794e-05
-0.197647
4.97227e-05
-0.179364
4.47798e-05
-0.162772
3.66886e-05
-0.147718
2.6456e-05
-0.134059
1.53154e-05
-0.121662
4.34172e-06
-0.110413
-5.72597e-06
-0.100205
-1.45039e-05
-0.0909412
-2.1704e-05
-0.0825341
-2.7959e-05
-0.0748973
-3.1675e-05
-0.47332
1.48196e-05
-0.429533
1.80528e-05
-0.389827
2.24339e-05
-0.353802
2.658e-05
-0.321086
3.17619e-05
-0.291405
3.72903e-05
-0.264454
4.31362e-05
-0.240002
4.83183e-05
-0.217796
5.17032e-05
-0.197649
5.21194e-05
-0.179363
4.88692e-05
-0.162769
4.20391e-05
-0.147714
3.24152e-05
-0.134054
2.12277e-05
-0.121656
9.70161e-06
-0.110407
-1.21728e-06
-0.1002
-1.09637e-05
-0.0909364
-1.93005e-05
-0.0825298
-2.6038e-05
-0.0748933
-3.19634e-05
-0.0679712
-3.51308e-05
-0.473324
1.3354e-05
-0.429534
1.64261e-05
-0.389829
2.04975e-05
-0.353804
2.43849e-05
-0.321088
2.93415e-05
-0.291408
3.4828e-05
-0.264458
4.09585e-05
-0.240006
4.69258e-05
-0.2178
5.16386e-05
-0.197651
5.38127e-05
-0.179363
5.24208e-05
-0.162767
4.71623e-05
-0.14771
3.85212e-05
-0.134049
2.76136e-05
-0.121651
1.57566e-05
-0.110402
4.09476e-06
-0.100195
-6.60652e-06
-0.0909314
-1.59467e-05
-0.0825253
-2.38155e-05
-0.0748893
-2.99583e-05
-0.0679676
-3.55979e-05
-0.0616785
-3.7885e-05
-0.473327
1.20077e-05
-0.429536
1.49232e-05
-0.389832
1.8702e-05
-0.353806
2.23119e-05
-0.321091
2.69927e-05
-0.291411
3.23228e-05
-0.264462
3.85617e-05
-0.24001
4.50816e-05
-0.217804
5.09218e-05
-0.197654
5.47451e-05
-0.179364
5.52913e-05
-0.162767
5.18614e-05
-0.147707
4.45699e-05
-0.134045
3.43162e-05
-0.121646
2.24074e-05
-0.110396
1.01632e-05
-0.100189
-1.41876e-06
-0.0909262
-1.17612e-05
-0.0825206
-2.06114e-05
-0.0748852
-2.79702e-05
-0.0679639
-3.36042e-05
-0.0616751
-3.89716e-05
-0.0559732
-4.05761e-05
-0.47333
1.07786e-05
-0.429537
1.35496e-05
-0.389834
1.70524e-05
-0.353808
2.0378e-05
-0.321094
2.47388e-05
-0.291414
2.98304e-05
-0.264465
3.60228e-05
-0.240014
4.28788e-05
-0.217808
4.95991e-05
-0.197658
5.49083e-05
-0.179367
5.73715e-05
-0.162767
5.59559e-05
-0.147706
5.03494e-05
-0.134041
4.11397e-05
-0.121641
2.95289e-05
-0.110391
1.69288e-05
-0.100184
4.56225e-06
-0.0909209
-6.76166e-06
-0.0825157
-1.6653e-05
-0.0748808
-2.49862e-05
-0.0679601
-3.18451e-05
-0.0616718
-3.68532e-05
-0.0559701
-4.20303e-05
-0.0507952
-4.26091e-05
-0.473333
9.66452e-06
-0.429539
1.22851e-05
-0.389836
1.55353e-05
-0.353809
1.85803e-05
-0.321096
2.26085e-05
-0.291416
2.73956e-05
-0.264469
3.34173e-05
-0.240018
4.04066e-05
-0.217813
4.77633e-05
-0.197662
5.43273e-05
-0.179371
5.8614e-05
-0.162769
5.92928e-05
-0.147706
5.56534e-05
-0.134039
4.78809e-05
-0.121637
3.69596e-05
-0.110386
2.43047e-05
-0.100178
1.13081e-05
-0.0909154
-9.58544e-07
-0.0825106
-1.18821e-05
-0.0748762
-2.1248e-05
-0.067956
-2.90297e-05
-0.0616683
-3.53757e-05
-0.0559671
-3.98541e-05
-0.0507924
-4.48669e-05
-0.0460929
-4.46426e-05
-0.473335
8.66412e-06
-0.42954
1.11322e-05
-0.389838
1.41417e-05
-0.353811
1.6923e-05
-0.321098
2.06046e-05
-0.291419
2.50543e-05
-0.264472
3.08069e-05
-0.240023
3.77591e-05
-0.217818
4.55044e-05
-0.197668
5.30667e-05
-0.179375
5.89904e-05
-0.162772
6.17674e-05
-0.147707
6.02873e-05
-0.134038
5.43149e-05
-0.121633
4.4499e-05
-0.110381
3.21534e-05
-0.100172
1.87754e-05
-0.0909097
5.66145e-06
-0.0825053
-6.31007e-06
-0.0748714
-1.67322e-05
-0.0679517
-2.5545e-05
-0.0616645
-3.2786e-05
-0.0559639
-3.864e-05
-0.0507897
-4.24874e-05
-0.0460904
-4.74463e-05
-0.0418276
-4.60693e-05
-0.473338
7.76506e-06
-0.429542
1.00763e-05
-0.38984
1.2852e-05
-0.353812
1.53874e-05
-0.3211
1.87425e-05
-0.291421
2.28268e-05
-0.264476
2.82454e-05
-0.240027
3.50151e-05
-0.217823
4.29317e-05
-0.197673
5.12197e-05
-0.179381
5.8546e-05
-0.162777
6.33101e-05
-0.147709
6.41008e-05
-0.134037
6.02212e-05
-0.121631
5.19325e-05
-0.110377
4.03137e-05
-0.100167
2.68732e-05
-0.090904
1.30885e-05
-0.0824997
8.99541e-08
-0.0748662
-1.14451e-05
-0.0679472
-2.12979e-05
-0.0616605
-2.95346e-05
-0.0559605
-3.62206e-05
-0.0507867
-4.15853e-05
-0.0460879
-4.4911e-05
-0.0418252
-4.98389e-05
-0.0379568
-4.75407e-05
-0.47334
6.95919e-06
-0.429543
9.11352e-06
-0.389841
1.1664e-05
-0.353813
1.3969e-05
-0.321101
1.70099e-05
-0.291423
2.07361e-05
-0.264478
2.57692e-05
-0.240031
3.22525e-05
-0.217828
4.01399e-05
-0.197679
4.88887e-05
-0.179387
5.73374e-05
-0.162782
6.3909e-05
-0.147713
6.69642e-05
-0.134039
6.54057e-05
-0.12163
5.90184e-05
-0.110373
4.85708e-05
-0.100162
3.54563e-05
-0.0908984
2.12623e-05
-0.082494
7.35557e-06
-0.0748608
-5.32114e-06
-0.0679423
-1.63072e-05
-0.0616563
-2.5557e-05
-0.0559568
-3.32237e-05
-0.0507836
-3.93832e-05
-0.0460853
-4.42893e-05
-0.0418231
-4.70045e-05
-0.0379547
-5.20207e-05
-0.0344434
-4.8477e-05
-0.473342
6.23201e-06
-0.429545
8.23108e-06
-0.389843
1.05606e-05
-0.353814
1.26576e-05
-0.321103
1.54099e-05
-0.291425
1.87821e-05
-0.264481
2.34155e-05
-0.240035
2.95232e-05
-0.217833
3.72295e-05
-0.197685
4.61904e-05
-0.179394
5.54725e-05
-0.162788
6.35967e-05
-0.147717
6.88189e-05
-0.134041
6.96882e-05
-0.12163
6.55356e-05
-0.110371
5.66933e-05
-0.100158
4.435e-05
-0.0908931
3.00923e-05
-0.0824882
1.54723e-05
-0.0748552
1.69823e-06
-0.0679371
-1.05131e-05
-0.0616517
-2.08885e-05
-0.0559528
-2.95144e-05
-0.0507802
-3.66161e-05
-0.0460824
-4.22479e-05
-0.0418207
-4.67076e-05
-0.0379528
-4.89249e-05
-0.0344414
-5.40489e-05
-0.031255
-4.9497e-05
-0.473344
5.57262e-06
-0.429546
7.42729e-06
-0.389844
9.5473e-06
-0.353815
1.14478e-05
-0.321104
1.39363e-05
-0.291426
1.69725e-05
-0.264484
2.11966e-05
-0.240038
2.68879e-05
-0.217838
3.42737e-05
-0.197691
4.32344e-05
-0.179401
5.30541e-05
-0.162795
6.24431e-05
-0.147724
6.96417e-05
-0.134046
7.29546e-05
-0.121631
7.12608e-05
-0.11037
6.44372e-05
-0.100155
5.33219e-05
-0.0908881
3.94164e-05
-0.0824824
2.43707e-05
-0.0748493
9.62912e-06
-0.0679316
-3.81194e-06
-0.0616468
-1.54364e-05
-0.0559486
-2.51505e-05
-0.0507766
-3.31631e-05
-0.0460793
-3.97253e-05
-0.0418181
-4.4867e-05
-0.0379506
-4.89115e-05
-0.0344397
-5.05616e-05
-0.0312532
-5.58991e-05
-0.0283621
-5.00402e-05
-0.473346
4.97123e-06
-0.429547
6.69055e-06
-0.389846
8.61724e-06
-0.353816
1.03376e-05
-0.321105
1.25841e-05
-0.291428
1.53075e-05
-0.264486
1.91283e-05
-0.240041
2.43689e-05
-0.217843
3.13564e-05
-0.197697
4.0124e-05
-0.179407
5.02184e-05
-0.162803
6.05519e-05
-0.147731
6.94698e-05
-0.134051
7.51223e-05
-0.121634
7.60227e-05
-0.11037
7.15495e-05
-0.100152
6.21347e-05
-0.0908839
4.90418e-05
-0.082477
3.39437e-05
-0.0748434
1.84589e-05
-0.0679258
3.85035e-06
-0.0616415
-9.09336e-06
-0.0559439
-2.00634e-05
-0.0507726
-2.91145e-05
-0.0460759
-3.65231e-05
-0.0418152
-4.25667e-05
-0.0379482
-4.72197e-05
-0.0344377
-5.08671e-05
-0.0312517
-5.20614e-05
-0.0283605
-5.76121e-05
-0.0257367
-5.06767e-05
-0.473348
4.42037e-06
-0.429548
6.02186e-06
-0.389847
7.77545e-06
-0.353817
9.32817e-06
-0.321106
1.13497e-05
-0.291429
1.37815e-05
-0.264488
1.7219e-05
-0.240044
2.19995e-05
-0.217847
2.85187e-05
-0.197703
3.69609e-05
-0.179414
4.70718e-05
-0.162811
5.80453e-05
-0.147738
6.83701e-05
-0.134058
7.61814e-05
-0.121639
7.96897e-05
-0.110372
7.78184e-05
-0.100151
7.05154e-05
-0.0908805
5.87292e-05
-0.0824719
4.40111e-05
-0.0748376
2.80976e-05
-0.0679199
1.24811e-05
-0.0616359
-1.77895e-06
-0.0559389
-1.41098e-05
-0.0507683
-2.4374e-05
-0.0460723
-3.27568e-05
-0.0418122
-3.95988e-05
-0.0379456
-4.5153e-05
-0.0344356
-4.93561e-05
-0.0312499
-5.26369e-05
-0.0283592
-5.33163e-05
-0.0257352
-5.91634e-05
-0.0233546
-5.08991e-05
-0.473349
3.91851e-06
-0.429549
5.41053e-06
-0.389848
7.01634e-06
-0.353817
8.41625e-06
-0.321107
1.02303e-05
-0.29143
1.23919e-05
-0.264489
1.54647e-05
-0.240047
1.97942e-05
-0.217851
2.58109e-05
-0.197708
3.38145e-05
-0.179421
4.37543e-05
-0.162818
5.50518e-05
-0.147747
6.64591e-05
-0.134066
7.61516e-05
-0.121645
8.21826e-05
-0.110375
8.3052e-05
-0.100152
7.82173e-05
-0.0908782
6.8205e-05
-0.0824676
5.4367e-05
-0.074832
3.84209e-05
-0.0679138
2.20471e-05
-0.06163
6.56569e-06
-0.0559335
-7.1813e-06
-0.0507636
-1.88152e-05
-0.0460683
-2.83678e-05
-0.0418088
-3.61203e-05
-0.0379428
-4.24157e-05
-0.0344333
-4.75027e-05
-0.031248
-5.12595e-05
-0.0283576
-5.41908e-05
-0.025734
-5.44579e-05
-0.0233532
-6.05852e-05
-0.0211919
-5.12193e-05
-0.47335
3.46534e-06
-0.42955
4.85929e-06
-0.389849
6.33691e-06
-0.353818
7.60072e-06
-0.321108
9.21885e-06
-0.291431
1.11331e-05
-0.264491
1.38669e-05
-0.240049
1.7759e-05
-0.217854
2.32627e-05
-0.197713
3.07517e-05
-0.179428
4.03459e-05
-0.162826
5.17192e-05
-0.147756
6.38511e-05
-0.134074
7.5121e-05
-0.121652
8.34799e-05
-0.11038
8.71252e-05
-0.100154
8.5012e-05
-0.0908771
7.72073e-05
-0.0824641
6.47395e-05
-0.0748269
4.9233e-05
-0.0679078
3.24433e-05
-0.0616238
1.59245e-05
-0.0559278
7.95534e-07
-0.0507585
-1.23111e-05
-0.0460639
-2.32061e-05
-0.0418051
-3.20454e-05
-0.0379398
-3.9186e-05
-0.0344307
-4.49787e-05
-0.0312459
-4.96282e-05
-0.0283559
-5.2973e-05
-0.0257327
-5.55782e-05
-0.0233523
-5.53895e-05
-0.0211906
-6.18522e-05
-0.0192301
-5.11691e-05
-0.473352
3.06076e-06
-0.429551
4.36099e-06
-0.38985
5.72798e-06
-0.353818
6.87007e-06
-0.321109
8.31062e-06
-0.291432
9.99672e-06
-0.264492
1.24183e-05
-0.240051
1.58966e-05
-0.217857
2.08888e-05
-0.197718
2.78266e-05
-0.179434
3.69506e-05
-0.162834
4.81602e-05
-0.147765
6.07152e-05
-0.134084
7.31819e-05
-0.121661
8.36114e-05
-0.110387
8.99441e-05
-0.100157
9.07154e-05
-0.0908776
8.54705e-05
-0.0824618
7.4854e-05
-0.0748224
6.02835e-05
-0.0679021
4.35213e-05
-0.0616177
2.62525e-05
-0.0559217
9.85754e-06
-0.0507529
-4.74553e-06
-0.0460591
-1.7129e-05
-0.0418011
-2.72629e-05
-0.0379364
-3.54214e-05
-0.0344279
-4.20029e-05
-0.0312436
-4.73181e-05
-0.028354
-5.15495e-05
-0.0257312
-5.448e-05
-0.0233511
-5.67725e-05
-0.0211898
-5.62269e-05
-0.019229
-6.29878e-05
-0.0174493
-5.1189e-05
-0.473353
2.70408e-06
-0.429552
3.9146e-06
-0.389851
5.18214e-06
-0.353819
6.21778e-06
-0.321109
7.49264e-06
-0.291432
8.97625e-06
-0.264493
1.11121e-05
-0.240053
1.42057e-05
-0.21786
1.87018e-05
-0.197722
2.50641e-05
-0.17944
3.36371e-05
-0.162842
4.44954e-05
-0.147774
5.7168e-05
-0.134093
7.05017e-05
-0.12167
8.26453e-05
-0.110395
9.14988e-05
-0.100162
9.51885e-05
-0.0908797
9.27782e-05
-0.0824607
8.44354e-05
-0.0748189
7.13032e-05
-0.0678969
5.50438e-05
-0.0616116
3.74182e-05
-0.0559154
1.99835e-05
-0.050747
3.93392e-06
-0.0460538
-1.00147e-05
-0.0417966
-2.16208e-05
-0.0379327
-3.10019e-05
-0.0344248
-3.85024e-05
-0.031241
-4.45581e-05
-0.0283519
-4.94397e-05
-0.0257294
-5.32691e-05
-0.0233498
-5.58095e-05
-0.0211888
-5.78127e-05
-0.0192283
-5.68868e-05
-0.0174483
-6.39584e-05
-0.0158336
-5.08962e-05
-0.473354
2.3892e-06
-0.429553
3.51385e-06
-0.389852
4.68539e-06
-0.353819
5.63026e-06
-0.32111
6.75833e-06
-0.291433
8.05758e-06
-0.264494
9.93929e-06
-0.240054
1.26774e-05
-0.217862
1.67043e-05
-0.197726
2.24936e-05
-0.179445
3.04579e-05
-0.162849
4.08303e-05
-0.147782
5.33651e-05
-0.134103
6.72e-05
-0.12168
8.07182e-05
-0.110404
9.17914e-05
-0.100169
9.83503e-05
-0.0908834
9.89342e-05
-0.0824612
9.32314e-05
-0.0748164
8.19989e-05
-0.0678923
6.67425e-05
-0.0616057
4.92154e-05
-0.0559091
3.10941e-05
-0.0507408
1.37665e-05
-0.0460481
-1.76348e-06
-0.0417916
-1.49673e-05
-0.0379285
-2.57731e-05
-0.0344214
-3.44143e-05
-0.0312382
-4.13167e-05
-0.0283495
-4.69063e-05
-0.0257275
-5.13672e-05
-0.0233482
-5.47986e-05
-0.0211877
-5.69463e-05
-0.0192275
-5.86823e-05
-0.0174478
-5.74605e-05
-0.0158328
-6.47994e-05
-0.0143671
-5.07093e-05
-0.473355
2.11058e-06
-0.429553
3.1543e-06
-0.389852
4.2324e-06
-0.35382
5.09618e-06
-0.32111
6.09621e-06
-0.291433
7.23454e-06
-0.264495
8.88614e-06
-0.240056
1.13058e-05
-0.217865
1.48919e-05
-0.197729
2.01237e-05
-0.17945
2.74538e-05
-0.162856
3.72325e-05
-0.147791
4.94304e-05
-0.134113
6.34492e-05
-0.121691
7.79481e-05
-0.110414
9.09383e-05
-0.100178
0.000100159
-0.0908889
0.000103816
-0.0824633
0.00010102
-0.0748153
9.21128e-05
-0.0678887
7.83342e-05
-0.0616004
6.13885e-05
-0.0559029
4.30003e-05
-0.0507344
2.46952e-05
-0.0460421
7.69259e-06
-0.0417862
-7.18865e-06
-0.0379239
-1.95907e-05
-0.0344176
-2.95879e-05
-0.0312351
-3.75351e-05
-0.028347
-4.38789e-05
-0.0257254
-4.9031e-05
-0.0233465
-5.30947e-05
-0.0211864
-5.61303e-05
-0.0192265
-5.79134e-05
-0.0174471
-5.94109e-05
-0.0158323
-5.78842e-05
-0.0143664
-6.55215e-05
-0.0130363
-5.03614e-05
-0.473356
1.86148e-06
-0.429554
2.83025e-06
-0.389853
3.81365e-06
-0.35382
4.60669e-06
-0.321111
5.4968e-06
-0.291434
6.49569e-06
-0.264496
7.94455e-06
-0.240057
1.00735e-05
-0.217867
1.32593e-05
-0.197732
1.79589e-05
-0.179455
2.46534e-05
-0.162862
3.3774e-05
-0.147799
4.54658e-05
-0.134123
5.93983e-05
-0.121702
7.4503e-05
-0.110425
8.90125e-05
-0.100187
0.000100666
-0.090896
0.00010731
-0.0824671
0.000107626
-0.0748157
0.000101392
-0.0678861
8.95434e-05
-0.0615957
7.36454e-05
-0.055897
5.54504e-05
-0.050728
3.65649e-05
-0.0460357
1.83492e-05
-0.0417804
1.84209e-06
-0.0379188
-1.22991e-05
-0.0344133
-2.3864e-05
-0.0312316
-3.30738e-05
-0.0283441
-4.0368e-05
-0.0257231
-4.62213e-05
-0.0233446
-5.09764e-05
-0.0211848
-5.46339e-05
-0.0192254
-5.72755e-05
-0.0174463
-5.8707e-05
-0.0158318
-5.99938e-05
-0.0143661
-5.8247e-05
-0.0130356
-6.62189e-05
-0.0118289
-5.02037e-05
-0.473357
1.63421e-06
-0.429555
2.54057e-06
-0.389853
3.43072e-06
-0.35382
4.15492e-06
-0.321111
4.95307e-06
-0.291434
5.83203e-06
-0.264496
7.10341e-06
-0.240058
8.9739e-06
-0.217868
1.17901e-05
-0.197735
1.59965e-05
-0.179459
2.20667e-05
-0.162868
3.04966e-05
-0.147807
4.15641e-05
-0.134133
5.51727e-05
-0.121713
7.05557e-05
-0.110437
8.61853e-05
-0.100198
9.99145e-05
-0.0909048
0.000109425
-0.0824727
0.000112895
-0.0748177
0.000109644
-0.0678848
0.000100121
-0.0615919
8.57205e-05
-0.0558915
6.81648e-05
-0.0507216
4.91342e-05
-0.0460292
3.00724e-05
-0.0417742
1.21512e-05
-0.0379132
-3.73691e-06
-0.0344085
-1.70756e-05
-0.0312277
-2.77982e-05
-0.028341
-3.62505e-05
-0.0257205
-4.29593e-05
-0.0233424
-4.83526e-05
-0.0211831
-5.27123e-05
-0.019224
-5.59708e-05
-0.0174454
-5.82267e-05
-0.0158311
-5.9343e-05
-0.0143656
-6.04686e-05
-0.0130353
-5.85478e-05
-0.0118283
-6.69195e-05
-0.010734
-4.99794e-05
-0.473357
1.42773e-06
-0.429556
2.27612e-06
-0.389854
3.08439e-06
-0.353821
3.74035e-06
-0.321111
4.45723e-06
-0.291434
5.23581e-06
-0.264497
6.35156e-06
-0.240059
7.99271e-06
-0.21787
1.04771e-05
-0.197737
1.42229e-05
-0.179462
1.97038e-05
-0.162873
2.74312e-05
-0.147814
3.77981e-05
-0.134142
5.08975e-05
-0.121724
6.62438e-05
-0.110449
8.26176e-05
-0.10021
9.80319e-05
-0.090915
0.000110133
-0.08248
0.000116771
-0.0748215
0.000116668
-0.067885
0.000109851
-0.0615891
9.73532e-05
-0.0558866
8.08646e-05
-0.0507156
6.21119e-05
-0.0460227
4.26198e-05
-0.0417677
2.36368e-05
-0.0379072
6.17616e-06
-0.0344033
-9.00275e-06
-0.0312232
-2.15059e-05
-0.0283374
-3.1395e-05
-0.0257176
-3.91443e-05
-0.0233401
-4.53141e-05
-0.0211811
-5.02917e-05
-0.0192225
-5.42675e-05
-0.0174442
-5.71149e-05
-0.0158304
-5.89986e-05
-0.0143651
-5.98395e-05
-0.0130349
-6.08802e-05
-0.011828
-5.88859e-05
-0.0107332
-6.76823e-05
-0.00974061
-4.99037e-05
-0.473358
1.23876e-06
-0.429556
2.0394e-06
-0.389855
2.77076e-06
-0.353821
3.3661e-06
-0.321112
4.00735e-06
-0.291434
4.69787e-06
-0.264497
5.68093e-06
-0.24006
7.11883e-06
-0.217871
9.30563e-06
-0.197739
1.26314e-05
-0.179466
1.75508e-05
-0.162878
2.45967e-05
-0.147821
3.42146e-05
-0.134151
4.66722e-05
-0.121735
6.17276e-05
-0.110461
7.84679e-05
-0.100223
9.51755e-05
-0.0909265
0.000109527
-0.082489
0.00011917
-0.0748271
0.000122365
-0.0678869
0.000118519
-0.0615876
0.000108344
-0.0558826
9.33107e-05
-0.05071
7.52273e-05
-0.0460163
5.57053e-05
-0.0417612
3.6063e-05
-0.037901
1.73646e-05
-0.0343976
4.76479e-07
-0.0312183
-1.39365e-05
-0.0283333
-2.55927e-05
-0.0257143
-3.46872e-05
-0.0233375
-4.17846e-05
-0.021179
-4.74685e-05
-0.0192208
-5.20287e-05
-0.0174429
-5.56067e-05
-0.0158294
-5.80538e-05
-0.0143645
-5.95952e-05
-0.0130345
-6.02415e-05
-0.0118276
-6.12921e-05
-0.0107329
-5.92852e-05
-0.00973987
-6.84471e-05
-0.00883888
-4.94211e-05
-0.473358
1.06809e-06
-0.429557
1.82288e-06
-0.389855
2.49226e-06
-0.353821
3.02624e-06
-0.321112
3.60338e-06
-0.291435
4.21391e-06
-0.264498
5.07931e-06
-0.24006
6.34134e-06
-0.217872
8.2626e-06
-0.197741
1.12083e-05
-0.179469
1.56087e-05
-0.162883
2.19903e-05
-0.147827
3.08562e-05
-0.13416
4.25712e-05
-0.121746
5.71307e-05
-0.110473
7.39085e-05
-0.100236
9.14868e-05
-0.090939
0.000107721
-0.0824996
0.000120125
-0.0748345
0.000126594
-0.0678905
0.000125996
-0.0615875
0.000118467
-0.0558795
0.0001053
-0.0507049
8.82335e-05
-0.0460101
6.90373e-05
-0.0417546
4.9123e-05
-0.0378945
2.95855e-05
-0.0343915
1.13181e-05
-0.0312129
-4.91079e-06
-0.0283287
-1.85266e-05
-0.0257105
-2.9352e-05
-0.0233344
-3.76936e-05
-0.0211766
-4.41933e-05
-0.0192188
-4.94082e-05
-0.0174413
-5.35685e-05
-0.0158283
-5.67545e-05
-0.0143638
-5.88079e-05
-0.0130341
-6.00682e-05
-0.0118272
-6.06209e-05
-0.0107324
-6.17649e-05
-0.0097394
-5.9778e-05
-0.0088384
-6.89738e-05
-0.00801797
-4.59159e-05
-0.473359
9.1644e-07
-0.429557
1.6275e-06
-0.389855
2.24177e-06
-0.353821
2.72499e-06
-0.321112
3.2374e-06
-0.291435
3.78181e-06
-0.264498
4.54134e-06
-0.240061
5.64711e-06
-0.217873
7.33634e-06
-0.197743
9.9385e-06
-0.179471
1.38622e-05
-0.162887
1.96179e-05
-0.147833
2.77273e-05
-0.134168
3.86604e-05
-0.121756
5.25618e-05
-0.110485
6.90992e-05
-0.100249
8.71588e-05
-0.0909524
0.000104842
-0.0825116
0.000119703
-0.0748437
0.000129322
-0.067896
0.000132084
-0.0615891
0.000127578
-0.0558777
0.000116633
-0.0507005
0.000100964
-0.0460043
8.23903e-05
-0.0417481
6.25215e-05
-0.0378879
4.25253e-05
-0.0343852
2.32832e-05
-0.0312072
5.56197e-06
-0.0283236
-9.9631e-06
-0.0257063
-2.27798e-05
-0.023331
-3.28066e-05
-0.0211738
-4.04497e-05
-0.0192166
-4.63818e-05
-0.0174396
-5.11499e-05
-0.015827
-5.48971e-05
-0.0143629
-5.76873e-05
-0.0130335
-5.93968e-05
-0.0118268
-6.04662e-05
-0.010732
-6.10219e-05
-0.00973885
-6.23269e-05
-0.00883786
-6.03516e-05
-0.00802074
-6.6229e-05
-0.00725706
-3.71736e-05
-0.473359
7.83631e-07
-0.429558
1.4502e-06
-0.389856
2.01708e-06
-0.353822
2.45358e-06
-0.321112
2.91211e-06
-0.291435
3.39132e-06
-0.264498
4.06236e-06
-0.240061
5.02829e-06
-0.217874
6.51081e-06
-0.197745
8.81025e-06
-0.179474
1.22988e-05
-0.16289
1.74707e-05
-0.147838
2.48506e-05
-0.134175
3.4962e-05
-0.121765
4.81124e-05
-0.110497
6.41704e-05
-0.100262
8.23614e-05
-0.0909663
0.000101067
-0.0825248
0.000117982
-0.0748545
0.000130559
-0.0679034
0.000136703
-0.0615925
0.000135459
-0.0558773
0.000127169
-0.0506971
0.000113232
-0.0459989
9.55975e-05
-0.0417417
7.60154e-05
-0.0378812
5.58545e-05
-0.0343787
3.60273e-05
-0.0312011
1.72308e-05
-0.0283182
1.1972e-07
-0.0257016
-1.46772e-05
-0.0233271
-2.67137e-05
-0.0211707
-3.59855e-05
-0.0192141
-4.29618e-05
-0.0174376
-4.83501e-05
-0.0158254
-5.26702e-05
-0.0143617
-5.60255e-05
-0.0130327
-5.84548e-05
-0.0118263
-5.98885e-05
-0.0107316
-6.0855e-05
-0.00973839
-6.1512e-05
-0.00883722
-6.29939e-05
-0.00802076
-6.03516e-05
-0.00726781
-5.55161e-05
-0.00655269
-2.6923e-05
-0.47336
6.68688e-07
-0.429558
1.28862e-06
-0.389856
1.81461e-06
-0.353822
2.2108e-06
-0.321112
2.61832e-06
-0.291435
3.04436e-06
-0.264498
3.63098e-06
-0.240062
4.47973e-06
-0.217875
5.77728e-06
-0.197746
7.80445e-06
-0.179476
1.09047e-05
-0.162893
1.55361e-05
-0.147843
2.22216e-05
-0.134181
3.15162e-05
-0.121774
4.38291e-05
-0.110508
5.92534e-05
-0.100275
7.72586e-05
-0.0909805
9.65801e-05
-0.0825388
0.000115121
-0.0748669
0.000130323
-0.0679126
0.00013979
-0.0615978
0.000141971
-0.0558785
0.000136671
-0.0506949
0.000124922
-0.0459942
0.000108523
-0.0417356
8.94784e-05
-0.0378745
6.93423e-05
-0.0343721
4.92024e-05
-0.0311948
2.97328e-05
-0.0283125
1.14765e-05
-0.0256965
-4.97819e-06
-0.0233227
-1.90573e-05
-0.021167
-3.03511e-05
-0.0192112
-3.89042e-05
-0.0174354
-4.52416e-05
-0.0158237
-5.00933e-05
-0.0143604
-5.39884e-05
-0.0130318
-5.69647e-05
-0.0118257
-5.9086e-05
-0.0107312
-6.03235e-05
-0.00973798
-6.12671e-05
-0.00883663
-6.21172e-05
-0.00802037
-6.33913e-05
-0.00727314
-5.50643e-05
-0.00656735
-4.08564e-05
-0.00590803
-1.69435e-05
-0.47336
5.70266e-07
-0.429559
1.14225e-06
-0.389857
1.62834e-06
-0.353822
1.9926e-06
-0.321112
2.35477e-06
-0.291435
2.73086e-06
-0.264499
3.24804e-06
-0.240062
3.98739e-06
-0.217875
5.12879e-06
-0.197747
6.91166e-06
-0.179478
9.65995e-06
-0.162896
1.38033e-05
-0.147847
1.98349e-05
-0.134188
2.83314e-05
-0.121782
3.97746e-05
-0.110518
5.44138e-05
-0.100288
7.20073e-05
-0.0909948
9.15546e-05
-0.0825535
0.000111287
-0.0748805
0.000128733
-0.0679236
0.000141307
-0.061605
0.000147004
-0.0558815
0.000144983
-0.050694
0.000135816
-0.0459904
0.000121082
-0.0417298
0.000102792
-0.0378679
8.28513e-05
-0.0343653
6.25458e-05
-0.0311883
4.26743e-05
-0.0283064
2.37033e-05
-0.025691
6.05711e-06
-0.0233179
-9.74269e-06
-0.021163
-2.31302e-05
-0.0192078
-3.37172e-05
-0.0174327
-4.15718e-05
-0.0158217
-4.72712e-05
-0.0143589
-5.16096e-05
-0.0130307
-5.51049e-05
-0.0118249
-5.77741e-05
-0.0107307
-5.96578e-05
-0.00973757
-6.07455e-05
-0.00883612
-6.17811e-05
-0.00801966
-6.28598e-05
-0.00727635
-6.02017e-05
-0.00657812
-4.4306e-05
-0.00592286
-2.60509e-05
-0.00532256
-8.36143e-06
-0.473361
4.82412e-07
-0.429559
1.01046e-06
-0.389857
1.45856e-06
-0.353822
1.79363e-06
-0.321113
2.11805e-06
-0.291435
2.44974e-06
-0.264499
2.90323e-06
-0.240062
3.55234e-06
-0.217876
4.54916e-06
-0.197748
6.12321e-06
-0.179479
8.5529e-06
-0.162899
1.22489e-05
-0.147851
1.76816e-05
-0.134193
2.54106e-05
-0.12179
3.59766e-05
-0.110528
4.97505e-05
-0.1003
6.67053e-05
-0.091009
8.61817e-05
-0.0825686
0.000106661
-0.0748951
0.000125923
-0.0679362
0.000141304
-0.0616141
0.000150441
-0.0558864
0.000151936
-0.0506948
0.000145733
-0.0459876
0.000133077
-0.0417247
0.000115923
-0.0378614
9.63211e-05
-0.0343584
7.59531e-05
-0.0311815
5.57945e-05
-0.0283001
3.63772e-05
-0.0256853
1.79962e-05
-0.0233128
9.80226e-07
-0.0211585
-1.41766e-05
-0.0192041
-2.69124e-05
-0.0174296
-3.68153e-05
-0.0158193
-4.39702e-05
-0.0143571
-4.90515e-05
-0.0130294
-5.29144e-05
-0.0118239
-5.60867e-05
-0.0107299
-5.85107e-05
-0.00973705
-6.01753e-05
-0.00883568
-6.11923e-05
-0.00801899
-6.24569e-05
-0.00727725
-6.19731e-05
-0.00658815
-5.01792e-05
-0.00593479
-3.24132e-05
-0.00533578
-1.28411e-05
-0.00479347
-1.44891e-06
-0.473361
4.10123e-07
-0.42956
8.93148e-07
-0.389857
1.3035e-06
-0.353822
1.61283e-06
-0.321113
1.9032e-06
-0.291435
2.19759e-06
-0.264499
2.59492e-06
-0.240063
3.16229e-06
-0.217877
4.03867e-06
-0.197749
5.42005e-06
-0.179481
7.57497e-06
-0.162901
1.08623e-05
-0.147855
1.5739e-05
-0.134198
2.27526e-05
-0.121797
3.24504e-05
-0.110538
4.53096e-05
-0.100312
6.14821e-05
-0.0910229
8.05764e-05
-0.0825839
0.000101444
-0.0749105
0.000122055
-0.0679501
0.000139875
-0.0616251
0.000152276
-0.0558934
0.000157364
-0.0506973
0.000154487
-0.0459862
0.000144352
-0.0417203
0.000128729
-0.0378553
0.000109756
-0.0343514
8.93692e-05
-0.0311746
6.89608e-05
-0.0282935
4.9193e-05
-0.0256793
3.03631e-05
-0.0233075
1.26287e-05
-0.0211538
-3.75434e-06
-0.0191999
-1.83175e-05
-0.0174261
-3.04276e-05
-0.0158165
-3.96365e-05
-0.014355
-4.6086e-05
-0.0130278
-5.05821e-05
-0.0118228
-5.4057e-05
-0.010729
-5.6995e-05
-0.00973636
-5.92137e-05
-0.0088352
-6.06681e-05
-0.00801841
-6.17891e-05
-0.00727694
-6.27707e-05
-0.00659579
-5.43636e-05
-0.00594706
-3.79228e-05
-0.00534703
-2.11589e-05
-0.00480427
-2.05355e-06
-0.00431688
3.63929e-06
-0.473361
3.48203e-07
-0.42956
7.9051e-07
-0.389857
1.16686e-06
-0.353822
1.4485e-06
-0.321113
1.70911e-06
-0.291435
1.96983e-06
-0.264499
2.32001e-06
-0.240063
2.81558e-06
-0.217877
3.5831e-06
-0.19775
4.80195e-06
-0.179482
6.70218e-06
-0.162903
9.63328e-06
-0.147858
1.39964e-05
-0.134203
2.03355e-05
-0.121803
2.92085e-05
-0.110546
4.11299e-05
-0.100323
5.64158e-05
-0.0910363
7.49111e-05
-0.0825991
9.57734e-05
-0.0749264
0.000117335
-0.0679652
0.000137139
-0.0616377
0.000152532
-0.0559023
0.000161183
-0.0507018
0.000161851
-0.0459864
0.00015469
-0.0417171
0.00014106
-0.0378496
0.000123066
-0.0343445
0.000102861
-0.0311674
8.21682e-05
-0.0282866
6.20424e-05
-0.025673
4.28494e-05
-0.0233018
2.46918e-05
-0.0211488
7.61476e-06
-0.0191955
-8.17837e-06
-0.0174222
-2.21752e-05
-0.0158132
-3.36534e-05
-0.0143525
-4.21439e-05
-0.013026
-4.7909e-05
-0.0118214
-5.19154e-05
-0.0107279
-5.51231e-05
-0.00973546
-5.78996e-05
-0.00883456
-5.98566e-05
-0.00801787
-6.12083e-05
-0.00727622
-6.25151e-05
-0.00660059
-5.79719e-05
-0.00595874
-4.26894e-05
-0.00535912
-2.58317e-05
-0.0048139
-1.15653e-05
-0.00432509
6.15029e-06
-0.00388834
7.13063e-06
-0.473361
2.97602e-07
-0.429561
6.98365e-07
-0.389858
1.04141e-06
-0.353823
1.30181e-06
-0.321113
1.53383e-06
-0.291435
1.76516e-06
-0.264499
2.07342e-06
-0.240063
2.50806e-06
-0.217877
3.17976e-06
-0.19775
4.25185e-06
-0.179483
5.93537e-06
-0.162905
8.53415e-06
-0.147861
1.24456e-05
-0.134207
1.81527e-05
-0.121809
2.62315e-05
-0.110554
3.72382e-05
-0.100334
5.15671e-05
-0.0910492
6.92902e-05
-0.082614
8.98515e-05
-0.0749425
0.000111903
-0.0679812
0.000133291
-0.0616519
0.000151284
-0.0559131