/*--------------------------------*- C++ -*----------------------------------*\
  =========                 |
  \\      /  F ield         | OpenFOAM: The Open Source CFD Toolbox
   \\    /   O peration     | Website:  https://openfoam.org
    \\  /    A nd           | Version:  dev
     \\/     M anipulation  |
\*---------------------------------------------------------------------------*/
FoamFile
{
    version     2.0;
    format      ascii;
    class       volVectorField;
    location    "225";
    object      U;
}
// * * * * * * * * * * * * * * * * * * * * * * * * * * * * * * * * * * * * * //

dimensions      [0 1 -1 0 0 0 0];

internalField   nonuniform List<vector> 
29380
(
(51.0447 0.0162762 0)
(51.0457 0.0162106 0)
(51.0564 0.00349797 0)
(51.0462 0.0162743 0)
(51.0557 0.00353002 0)
(51.0582 0.0128457 0)
(51.0467 0.0163624 0)
(51.0555 0.00366608 0)
(51.0583 0.0127151 0)
(51.0698 0.00561011 0)
(51.0472 0.0164497 0)
(51.0554 0.00391882 0)
(51.0582 0.0127487 0)
(51.0688 0.00574087 0)
(51.0733 0.00970509 0)
(51.0478 0.0165149 0)
(51.0553 0.00422865 0)
(51.0582 0.0128696 0)
(51.0683 0.00601994 0)
(51.0725 0.00967083 0)
(51.0817 0.00588608 0)
(51.0483 0.0165461 0)
(51.0552 0.00457614 0)
(51.0582 0.0130486 0)
(51.0679 0.00645879 0)
(51.0719 0.00983325 0)
(51.0803 0.006055 0)
(51.0858 0.00702416 0)
(51.0489 0.0165327 0)
(51.0552 0.00493782 0)
(51.0583 0.0132607 0)
(51.0675 0.00698273 0)
(51.0714 0.0101454 0)
(51.0795 0.00639514 0)
(51.0844 0.00707047 0)
(51.0918 0.00495697 0)
(51.0495 0.0164724 0)
(51.0553 0.0052987 0)
(51.0585 0.0134775 0)
(51.0673 0.00755923 0)
(51.071 0.0105657 0)
(51.0787 0.00693373 0)
(51.0834 0.0073421 0)
(51.0899 0.00512785 0)
(51.0959 0.0047055 0)
(51.0501 0.0163608 0)
(51.0554 0.00564305 0)
(51.0588 0.013682 0)
(51.0672 0.00815206 0)
(51.0707 0.0110579 0)
(51.078 0.00759827 0)
(51.0823 0.007822 0)
(51.0887 0.00550182 0)
(51.0939 0.00479724 0)
(51.1005 0.00343854 0)
(51.0507 0.0162004 0)
(51.0556 0.00596096 0)
(51.0591 0.0138558 0)
(51.0672 0.0087325 0)
(51.0705 0.0115875 0)
(51.0775 0.00836064 0)
(51.0815 0.00846175 0)
(51.0875 0.00611288 0)
(51.0926 0.00513033 0)
(51.0982 0.00358396 0)
(51.1042 0.00265745 0)
(51.0514 0.0159911 0)
(51.0558 0.0062412 0)
(51.0595 0.0139913 0)
(51.0673 0.0092806 0)
(51.0704 0.0121242 0)
(51.0771 0.00918185 0)
(51.0808 0.00923074 0)
(51.0865 0.00690279 0)
(51.0911 0.00570932 0)
(51.0967 0.00395366 0)
(51.1018 0.00274706 0)
(51.1079 0.00173796 0)
(51.052 0.0157387 0)
(51.056 0.00648031 0)
(51.0599 0.0140801 0)
(51.0675 0.00978103 0)
(51.0705 0.012643 0)
(51.0769 0.0100303 0)
(51.0804 0.0100933 0)
(51.0856 0.00784989 0)
(51.0899 0.00649504 0)
(51.095 0.0045806 0)
(51.1001 0.00307904 0)
(51.1053 0.00183023 0)
(51.1112 0.00083879 0)
(51.0526 0.0154468 0)
(51.0562 0.00667437 0)
(51.0603 0.0141227 0)
(51.0677 0.0102275 0)
(51.0707 0.0131244 0)
(51.0769 0.0108746 0)
(51.08 0.0110146 0)
(51.0849 0.0089209 0)
(51.0888 0.00747078 0)
(51.0936 0.0054295 0)
(51.0983 0.0036672 0)
(51.1035 0.00215269 0)
(51.1084 0.000883289 0)
(51.1142 8.71571e-05 0)
(51.0531 0.0151231 0)
(51.0564 0.00682795 0)
(51.0608 0.0141181 0)
(51.068 0.0106154 0)
(51.071 0.0135537 0)
(51.077 0.0116877 0)
(51.0799 0.0119594 0)
(51.0844 0.0100828 0)
(51.0879 0.00860959 0)
(51.0922 0.00649467 0)
(51.0966 0.00449395 0)
(51.1014 0.00272718 0)
(51.1065 0.00116169 0)
(51.1113 0.000103405 0)
(51.117 -0.000751627 0)
(51.0537 0.0147724 0)
(51.0566 0.00694463 0)
(51.0612 0.0140712 0)
(51.0683 0.0109451 0)
(51.0714 0.0139212 0)
(51.0772 0.012446 0)
(51.08 0.012893 0)
(51.0841 0.0112987 0)
(51.0872 0.0098829 0)
(51.0911 0.00775785 0)
(51.0951 0.00556164 0)
(51.0996 0.00354683 0)
(51.1043 0.00167992 0)
(51.1093 0.000344359 0)
(51.114 -0.000783219 0)
(51.1194 -0.00139836 0)
(51.0542 0.0144007 0)
(51.0569 0.00703318 0)
(51.0617 0.0139846 0)
(51.0686 0.0112152 0)
(51.0718 0.0142203 0)
(51.0776 0.0131312 0)
(51.0802 0.013784 0)
(51.084 0.01253 0)
(51.0867 0.0112549 0)
(51.0902 0.00919763 0)
(51.0937 0.00686343 0)
(51.0978 0.00462462 0)
(51.1023 0.00244754 0)
(51.107 0.000808653 0)
(51.1119 -0.000592451 0)
(51.1163 -0.00147669 0)
(51.1216 -0.00211556 0)
(51.0547 0.0140098 0)
(51.0571 0.00709844 0)
(51.0621 0.0138643 0)
(51.0689 0.011427 0)
(51.0723 0.0144481 0)
(51.078 0.0137289 0)
(51.0805 0.0146045 0)
(51.0842 0.0137379 0)
(51.0865 0.0126855 0)
(51.0894 0.0107841 0)
(51.0925 0.00838779 0)
(51.0962 0.00596462 0)
(51.1003 0.00348533 0)
(51.1048 0.00151986 0)
(51.1094 -0.00019987 0)
(51.1141 -0.00133595 0)
(51.1184 -0.0022481 0)
(51.1234 -0.00266998 0)
(51.0552 0.0136011 0)
(51.0573 0.00714602 0)
(51.0625 0.0137147 0)
(51.0693 0.0115806 0)
(51.0727 0.014604 0)
(51.0785 0.0142304 0)
(51.081 0.0153326 0)
(51.0845 0.0148862 0)
(51.0865 0.0141312 0)
(51.089 0.0124791 0)
(51.0915 0.0101135 0)
(51.0947 0.00756735 0)
(51.0984 0.00480912 0)
(51.1025 0.00250578 0)
(51.1071 0.000434358 0)
(51.1116 -0.00101857 0)
(51.1162 -0.00215964 0)
(51.1202 -0.00286289 0)
(51.125 -0.00325404 0)
(51.0557 0.0131736 0)
(51.0576 0.00717645 0)
(51.0629 0.0135425 0)
(51.0696 0.0116798 0)
(51.0732 0.0146906 0)
(51.079 0.0146313 0)
(51.0816 0.015952 0)
(51.085 0.0159421 0)
(51.0867 0.0155472 0)
(51.0888 0.014238 0)
(51.0908 0.0120089 0)
(51.0934 0.00942331 0)
(51.0966 0.00643175 0)
(51.1004 0.00379262 0)
(51.1047 0.00134219 0)
(51.1091 -0.000468107 0)
(51.1135 -0.00192324 0)
(51.1179 -0.0028264 0)
(51.1217 -0.00351175 0)
(51.1262 -0.00371837 0)
(51.0561 0.0127275 0)
(51.0578 0.00719006 0)
(51.0633 0.0133532 0)
(51.0699 0.01173 0)
(51.0737 0.0147127 0)
(51.0795 0.0149322 0)
(51.0822 0.0164533 0)
(51.0856 0.0168797 0)
(51.0872 0.0168911 0)
(51.089 0.0160107 0)
(51.0904 0.0140321 0)
(51.0924 0.0115114 0)
(51.095 0.00835725 0)
(51.0983 0.00540528 0)
(51.1023 0.00255911 0)
(51.1065 0.000349109 0)
(51.1109 -0.00146343 0)
(51.1152 -0.00267414 0)
(51.1194 -0.00352376 0)
(51.123 -0.0040495 0)
(51.1271 -0.00417959 0)
(51.0565 0.0122645 0)
(51.058 0.00718507 0)
(51.0637 0.0131536 0)
(51.0702 0.0117401 0)
(51.0742 0.014678 0)
(51.0801 0.0151374 0)
(51.0829 0.0168328 0)
(51.0864 0.0176793 0)
(51.0879 0.0181243 0)
(51.0894 0.0177459 0)
(51.0903 0.0161321 0)
(51.0916 0.0137974 0)
(51.0936 0.0105781 0)
(51.0964 0.00736235 0)
(51.0999 0.00412072 0)
(51.1039 0.00147579 0)
(51.1082 -0.000747925 0)
(51.1124 -0.00230847 0)
(51.1166 -0.00345591 0)
(51.1206 -0.00410669 0)
(51.1239 -0.00458901 0)
(51.1278 -0.00455553 0)
(51.0569 0.0117894 0)
(51.0582 0.00716187 0)
(51.064 0.0129482 0)
(51.0705 0.0117202 0)
(51.0746 0.0145957 0)
(51.0806 0.0152545 0)
(51.0836 0.0170923 0)
(51.0872 0.0183296 0)
(51.0888 0.0192157 0)
(51.09 0.0193934 0)
(51.0905 0.0182515 0)
(51.0913 0.0162346 0)
(51.0925 0.0130725 0)
(51.0947 0.00967192 0)
(51.0977 0.00605938 0)
(51.1013 0.0029563 0)
(51.1054 0.000271662 0)
(51.1096 -0.00170166 0)
(51.1138 -0.00318396 0)
(51.1177 -0.00412421 0)
(51.1215 -0.00468446 0)
(51.1245 -0.0050531 0)
(51.1281 -0.00490898 0)
(51.0572 0.01131 0)
(51.0584 0.00712223 0)
(51.0643 0.012741 0)
(51.0708 0.0116796 0)
(51.075 0.0144753 0)
(51.0811 0.0152933 0)
(51.0844 0.0172381 0)
(51.0881 0.018826 0)
(51.0898 0.0201415 0)
(51.091 0.0209078 0)
(51.0911 0.0203303 0)
(51.0913 0.018765 0)
(51.0918 0.0158025 0)
(51.0932 0.0123277 0)
(51.0955 0.00839988 0)
(51.0987 0.00483591 0)
(51.1025 0.00164601 0)
(51.1066 -0.000801468 0)
(51.1108 -0.0026878 0)
(51.1148 -0.00394524 0)
(51.1186 -0.0047854 0)
(51.1221 -0.00518114 0)
(51.1249 -0.00550112 0)
(51.1281 -0.00520131 0)
(51.0575 0.0108353 0)
(51.0586 0.00707051 0)
(51.0646 0.0125323 0)
(51.071 0.0116246 0)
(51.0754 0.0143252 0)
(51.0816 0.0152645 0)
(51.0851 0.0172794 0)
(51.089 0.0191709 0)
(51.0909 0.020888 0)
(51.0921 0.0222514 0)
(51.092 0.0223092 0)
(51.0917 0.0213226 0)
(51.0915 0.0187159 0)
(51.092 0.0153067 0)
(51.0936 0.0111537 0)
(51.0962 0.00715527 0)
(51.0996 0.00343099 0)
(51.1036 0.000446691 0)
(51.1077 -0.00191256 0)
(51.1118 -0.00356067 0)
(51.1157 -0.00469522 0)
(51.1192 -0.00536531 0)
(51.1225 -0.00565292 0)
(51.125 -0.00589708 0)
(51.1279 -0.00546503 0)
(51.0579 0.0103732 0)
(51.0588 0.00701151 0)
(51.0649 0.0123208 0)
(51.0713 0.0115562 0)
(51.0757 0.0141514 0)
(51.082 0.0151786 0)
(51.0857 0.0172277 0)
(51.09 0.0193712 0)
(51.092 0.0214486 0)
(51.0934 0.0233954 0)
(51.0932 0.024134 0)
(51.0925 0.0238372 0)
(51.0916 0.021746 0)
(51.0913 0.0185671 0)
(51.092 0.0143156 0)
(51.0938 0.00994456 0)
(51.0968 0.00568221 0)
(51.1004 0.00210726 0)
(51.1045 -0.000802387 0)
(51.1086 -0.00291417 0)
(51.1125 -0.00441885 0)
(51.1162 -0.00536074 0)
(51.1196 -0.00591795 0)
(51.1225 -0.00606464 0)
(51.1247 -0.00627119 0)
(51.1274 -0.0056835 0)
(51.0581 0.00992876 0)
(51.059 0.00694903 0)
(51.0651 0.0121033 0)
(51.0715 0.0114716 0)
(51.076 0.0139574 0)
(51.0824 0.0150446 0)
(51.0864 0.0170951 0)
(51.0909 0.0194384 0)
(51.0932 0.0218258 0)
(51.0948 0.0243222 0)
(51.0946 0.0257588 0)
(51.0936 0.0262391 0)
(51.0921 0.0248164 0)
(51.091 0.0220494 0)
(51.0908 0.0178608 0)
(51.0917 0.013219 0)
(51.094 0.00844754 0)
(51.0972 0.00424834 0)
(51.1011 0.000713076 0)
(51.1051 -0.00195083 0)
(51.1092 -0.00389906 0)
(51.113 -0.00518967 0)
(51.1165 -0.00599377 0)
(51.1197 -0.00640914 0)
(51.1223 -0.00644464 0)
(51.1243 -0.00660772 0)
(51.1266 -0.00587287 0)
(51.0584 0.00950269 0)
(51.0592 0.00688407 0)
(51.0654 0.0118765 0)
(51.0716 0.0113654 0)
(51.0763 0.0137441 0)
(51.0828 0.0148704 0)
(51.087 0.0168936 0)
(51.0917 0.0193861 0)
(51.0944 0.0220273 0)
(51.0963 0.025023 0)
(51.0963 0.0271488 0)
(51.0952 0.0284641 0)
(51.0932 0.0278457 0)
(51.0912 0.0256774 0)
(51.09 0.0217424 0)
(51.09 0.0169739 0)
(51.0914 0.0117631 0)
(51.094 0.00693423 0)
(51.0975 0.00271252 0)
(51.1015 -0.000596553 0)
(51.1056 -0.00308419 0)
(51.1096 -0.00479415 0)
(51.1133 -0.00592236 0)
(51.1166 -0.006561 0)
(51.1195 -0.00686577 0)
(51.1219 -0.00677834 0)
(51.1235 -0.00692156 0)
(51.1256 -0.00602807 0)
(51.0587 0.00909143 0)
(51.0594 0.00681395 0)
(51.0656 0.0116383 0)
(51.0718 0.0112335 0)
(51.0765 0.0135117 0)
(51.0831 0.0146621 0)
(51.0875 0.0166347 0)
(51.0926 0.0192292 0)
(51.0956 0.022067 0)
(51.0979 0.0254999 0)
(51.0981 0.0282805 0)
(51.097 0.0304569 0)
(51.0947 0.0307518 0)
(51.0919 0.0293633 0)
(51.0897 0.0258926 0)
(51.0886 0.0211815 0)
(51.089 0.015647 0)
(51.0909 0.0102211 0)
(51.094 0.00527398 0)
(51.0978 0.0012351 0)
(51.1019 -0.00189869 0)
(51.106 -0.00412754 0)
(51.1098 -0.00564496 0)
(51.1133 -0.0065845 0)
(51.1164 -0.00708815 0)
(51.1191 -0.00727374 0)
(51.1212 -0.00708004 0)
(51.1225 -0.00720668 0)
(51.1242 -0.00615812 0)
(51.0589 0.00868913 0)
(51.0596 0.00673369 0)
(51.0658 0.0113889 0)
(51.0719 0.0110752 0)
(51.0767 0.0132612 0)
(51.0834 0.0144254 0)
(51.088 0.0163291 0)
(51.0933 0.0189833 0)
(51.0968 0.0219608 0)
(51.0994 0.0257614 0)
(51.1 0.0291431 0)
(51.0991 0.0321745 0)
(51.0966 0.0334592 0)
(51.0932 0.0330129 0)
(51.0901 0.0302248 0)
(51.0878 0.0257891 0)
(51.087 0.0200941 0)
(51.088 0.01415 0)
(51.0904 0.00847217 0)
(51.0938 0.00363379 0)
(51.0978 -0.000250459 0)
(51.102 -0.00311471 0)
(51.1061 -0.00512164 0)
(51.1098 -0.00641942 0)
(51.1131 -0.00720034 0)
(51.116 -0.00756189 0)
(51.1184 -0.00764703 0)
(51.1201 -0.00734468 0)
(51.1212 -0.00747128 0)
(51.1226 -0.00626132 0)
(51.0591 0.0082889 0)
(51.0597 0.00663694 0)
(51.066 0.011131 0)
(51.0721 0.0108958 0)
(51.0769 0.0129959 0)
(51.0837 0.0141653 0)
(51.0884 0.0159864 0)
(51.094 0.0186638 0)
(51.0979 0.0217281 0)
(51.101 0.0258238 0)
(51.102 0.0297364 0)
(51.1014 0.0335875 0)
(51.0988 0.035901 0)
(51.0951 0.0365308 0)
(51.091 0.0346386 0)
(51.0876 0.0307198 0)
(51.0856 0.0250729 0)
(51.0853 0.018741 0)
(51.0869 0.0123701 0)
(51.0898 0.00668992 0)
(51.0936 0.00195873 0)
(51.0978 -0.00166047 0)
(51.102 -0.00427953 0)
(51.106 -0.00603352 0)
(51.1095 -0.00714 0)
(51.1127 -0.00775767 0)
(51.1153 -0.00799635 0)
(51.1174 -0.00797986 0)
(51.1189 -0.00758115 0)
(51.1197 -0.00771147 0)
(51.1208 -0.00634225 0)
(51.0593 0.00788592 0)
(51.0598 0.00651966 0)
(51.0661 0.0108692 0)
(51.0722 0.0107045 0)
(51.0771 0.0127212 0)
(51.0839 0.0138878 0)
(51.0888 0.0156159 0)
(51.0947 0.0182852 0)
(51.0989 0.0213878 0)
(51.1025 0.0257066 0)
(51.104 0.0300706 0)
(51.1038 0.0346811 0)
(51.1014 0.0380252 0)
(51.0974 0.0398281 0)
(51.0926 0.0390258 0)
(51.088 0.0358758 0)
(51.0847 0.0305239 0)
(51.0831 0.0239877 0)
(51.0836 0.0170134 0)
(51.0857 0.0104867 0)
(51.0891 0.00483262 0)
(51.0933 0.00033978 0)
(51.0976 -0.00302246 0)
(51.1018 -0.00535757 0)
(51.1057 -0.0068833 0)
(51.1091 -0.00779525 0)
(51.112 -0.00827034 0)
(51.1144 -0.00838557 0)
(51.1162 -0.00828141 0)
(51.1174 -0.0077869 0)
(51.1179 -0.00793199 0)
(51.1186 -0.00640096 0)
(51.0595 0.00747939 0)
(51.06 0.00638043 0)
(51.0663 0.0106093 0)
(51.0722 0.0105136 0)
(51.0772 0.0124446 0)
(51.0841 0.013599 0)
(51.0891 0.0152257 0)
(51.0952 0.0178615 0)
(51.0998 0.0209603 0)
(51.1039 0.0254336 0)
(51.106 0.0301637 0)
(51.1063 0.0354533 0)
(51.1042 0.0397946 0)
(51.1002 0.0428254 0)
(51.0948 0.0432767 0)
(51.0892 0.0411438 0)
(51.0845 0.0363607 0)
(51.0815 0.0298538 0)
(51.0806 0.0224228 0)
(51.0818 0.0150942 0)
(51.0846 0.00847159 0)
(51.0885 0.00300001 0)
(51.0929 -0.00124209 0)
(51.0973 -0.00429678 0)
(51.1014 -0.00636578 0)
(51.1052 -0.00765943 0)
(51.1084 -0.00839876 0)
(51.1111 -0.00873276 0)
(51.1133 -0.0087393 0)
(51.1148 -0.00854843 0)
(51.1157 -0.00796779 0)
(51.1159 -0.00813036 0)
(51.1162 -0.00643997 0)
(51.0596 0.00707309 0)
(51.0601 0.00622366 0)
(51.0664 0.0103568 0)
(51.0723 0.0103339 0)
(51.0774 0.0121735 0)
(51.0842 0.0133054 0)
(51.0894 0.014824 0)
(51.0958 0.0174055 0)
(51.1006 0.0204638 0)
(51.1052 0.0250283 0)
(51.1079 0.0300394 0)
(51.1088 0.0359148 0)
(51.1072 0.0411892 0)
(51.1033 0.04546 0)
(51.0976 0.0472872 0)
(51.0911 0.046401 0)
(51.085 0.0424747 0)
(51.0805 0.0362725 0)
(51.0781 0.0285888 0)
(51.0781 0.0205603 0)
(51.08 0.0129682 0)
(51.0835 0.00643508 0)
(51.0878 0.0011835 0)
(51.0923 -0.00274119 0)
(51.0968 -0.00549589 0)
(51.1009 -0.00729119 0)
(51.1044 -0.00837482 0)
(51.1075 -0.00894544 0)
(51.11 -0.00915493 0)
(51.1119 -0.00905429 0)
(51.1132 -0.00878724 0)
(51.1137 -0.00812271 0)
(51.1136 -0.00830931 0)
(51.1133 -0.00645914 0)
(51.0598 0.00667485 0)
(51.0602 0.00605712 0)
(51.0666 0.0101142 0)
(51.0724 0.0101729 0)
(51.0775 0.0119135 0)
(51.0844 0.0130123 0)
(51.0897 0.0144176 0)
(51.0962 0.0169286 0)
(51.1014 0.0199166 0)
(51.1064 0.0245161 0)
(51.1097 0.0297253 0)
(51.1113 0.0360858 0)
(51.1103 0.0422046 0)
(51.1068 0.047685 0)
(51.101 0.0509643 0)
(51.0937 0.0515225 0)
(51.0864 0.0487401 0)
(51.0803 0.0431495 0)
(51.0763 0.0354698 0)
(51.0748 0.0269041 0)
(51.0756 0.0183963 0)
(51.0783 0.0107571 0)
(51.0823 0.00438052 0)
(51.087 -0.000563592 0)
(51.0917 -0.00416427 0)
(51.0962 -0.00660416 0)
(51.1001 -0.00814525 0)
(51.1035 -0.00902456 0)
(51.1063 -0.00944569 0)
(51.1087 -0.00953434 0)
(51.1104 -0.00933768 0)
(51.1114 -0.00899548 0)
(51.1115 -0.0082554 0)
(51.111 -0.00846755 0)
(51.1099 -0.00645926 0)
(51.0599 0.0062909 0)
(51.0603 0.00589177 0)
(51.0667 0.00988099 0)
(51.0725 0.0100294 0)
(51.0776 0.0116675 0)
(51.0845 0.0127241 0)
(51.0899 0.0140127 0)
(51.0966 0.0164411 0)
(51.1021 0.0193341 0)
(51.1076 0.0239197 0)
(51.1114 0.029251 0)
(51.1137 0.0359938 0)
(51.1134 0.0428512 0)
(51.1104 0.0494749 0)
(51.1047 0.054232 0)
(51.0971 0.0563882 0)
(51.0887 0.0550197 0)
(51.081 0.0503664 0)
(51.0752 0.0429933 0)
(51.072 0.0341118 0)
(51.0714 0.0248028 0)
(51.0732 0.0160639 0)
(51.0767 0.00847838 0)
(51.0812 0.00237112 0)
(51.0861 -0.00224033 0)
(51.091 -0.00549139 0)
(51.0953 -0.00763046 0)
(51.0991 -0.00892256 0)
(51.1023 -0.00961931 0)
(51.105 -0.00989791 0)
(51.1072 -0.00987842 0)
(51.1087 -0.00958642 0)
(51.1093 -0.00917694 0)
(51.109 -0.00836586 0)
(51.108 -0.00860661 0)
(51.1058 -0.00644173 0)
(51.06 0.00592245 0)
(51.0604 0.00573583 0)
(51.0668 0.00965257 0)
(51.0725 0.00989576 0)
(51.0777 0.0114335 0)
(51.0846 0.0124429 0)
(51.0901 0.0136141 0)
(51.097 0.0159513 0)
(51.1027 0.0187308 0)
(51.1086 0.0232615 0)
(51.113 0.0286463 0)
(51.116 0.0356714 0)
(51.1165 0.0431508 0)
(51.1142 0.0508206 0)
(51.1089 0.0570334 0)
(51.101 0.0608897 0)
(51.0917 0.0611728 0)
(51.0826 0.0577854 0)
(51.075 0.0510584 0)
(51.0699 0.0421378 0)
(51.0677 0.0322022 0)
(51.0682 0.0224282 0)
(51.0709 0.013596 0)
(51.0751 0.00620683 0)
(51.0801 0.000417444 0)
(51.0852 -0.00382109 0)
(51.0901 -0.00672796 0)
(51.0943 -0.00856816 0)
(51.098 -0.00963352 0)
(51.101 -0.0101584 0)
(51.1036 -0.0103104 0)
(51.1056 -0.0101843 0)
(51.1067 -0.00980462 0)
(51.107 -0.00933028 0)
(51.106 -0.00845674 0)
(51.1043 -0.00872534 0)
(51.1012 -0.00641426 0)
(51.0602 0.00556413 0)
(51.0605 0.0055927 0)
(51.0669 0.00942417 0)
(51.0726 0.0097572 0)
(51.0778 0.0112062 0)
(51.0847 0.0121685 0)
(51.0903 0.0132253 0)
(51.0973 0.0154659 0)
(51.1033 0.0181182 0)
(51.1095 0.0225605 0)
(51.1145 0.0279397 0)
(51.1182 0.0351533 0)
(51.1196 0.0431346 0)
(51.1181 0.0517319 0)
(51.1133 0.0593345 0)
(51.1055 0.064936 0)
(51.0956 0.0670621 0)
(51.0851 0.0652558 0)
(51.0757 0.0595392 0)
(51.0686 0.0509067 0)
(51.0645 0.0405779 0)
(51.0635 0.029891 0)
(51.0651 0.0198293 0)
(51.0687 0.0110814 0)
(51.0735 0.00396552 0)
(51.0789 -0.00144714 0)
(51.0842 -0.00530638 0)
(51.089 -0.00786505 0)
(51.0931 -0.00942645 0)
(51.0966 -0.010278 0)
(51.0996 -0.0106511 0)
(51.102 -0.0106809 0)
(51.1038 -0.0104559 0)
(51.1046 -0.00998974 0)
(51.1042 -0.00945916 0)
(51.1025 -0.00852753 0)
(51.0999 -0.00882873 0)
(51.0966 -0.00638365 0)
(51.0603 0.00520436 0)
(51.0606 0.00545847 0)
(51.0671 0.00919269 0)
(51.0726 0.00960112 0)
(51.0778 0.0109777 0)
(51.0847 0.011899 0)
(51.0904 0.0128481 0)
(51.0976 0.0149898 0)
(51.1038 0.017506 0)
(51.1103 0.0218338 0)
(51.1158 0.0271574 0)
(51.1203 0.0344747 0)
(51.1225 0.0428397 0)
(51.1219 0.0522308 0)
(51.1179 0.0611207 0)
(51.1105 0.0684581 0)
(51.1003 0.0725618 0)
(51.0887 0.07262 0)
(51.0775 0.0682881 0)
(51.0683 0.0603146 0)
(51.0621 0.0498837 0)
(51.0593 0.0384636 0)
(51.0595 0.027243 0)
(51.0622 0.0171109 0)
(51.0666 0.00855779 0)
(51.072 0.00179734 0)
(51.0777 -0.00321674 0)
(51.083 -0.00668417 0)
(51.0878 -0.0089099 0)
(51.0918 -0.0102052 0)
(51.0951 -0.0108664 0)
(51.098 -0.0110969 0)
(51.1004 -0.0110143 0)
(51.1019 -0.0106901 0)
(51.1021 -0.0101459 0)
(51.1009 -0.00956263 0)
(51.0982 -0.00858208 0)
(51.0952 -0.00892147 0)
(51.0926 -0.00636116 0)
(51.0603 0.00483603 0)
(51.0607 0.00532415 0)
(51.0672 0.00895853 0)
(51.0727 0.00942121 0)
(51.0779 0.0107416 0)
(51.0848 0.0116312 0)
(51.0906 0.0124829 0)
(51.0978 0.0145263 0)
(51.1042 0.0169013 0)
(51.1111 0.021095 0)
(51.1171 0.0263229 0)
(51.1222 0.0336695 0)
(51.1253 0.0423061 0)
(51.1257 0.0523523 0)
(51.1226 0.0623992 0)
(51.1157 0.0714103 0)
(51.1055 0.0775638 0)
(51.0931 0.0797223 0)
(51.0804 0.0771404 0)
(51.0691 0.0702318 0)
(51.0606 0.0600466 0)
(51.0557 0.0481297 0)
(51.0543 0.0358722 0)
(51.0558 0.0243798 0)
(51.0595 0.0143285 0)
(51.0646 0.00608093 0)
(51.0705 -0.000282789 0)
(51.0764 -0.00487509 0)
(51.0818 -0.00795873 0)
(51.0864 -0.00986127 0)
(51.0903 -0.010915 0)
(51.0936 -0.0114001 0)
(51.0964 -0.0115016 0)
(51.0986 -0.0113067 0)
(51.0996 -0.0108903 0)
(51.099 -0.0102711 0)
(51.0969 -0.00964531 0)
(51.0935 -0.00862474 0)
(51.091 -0.00901474 0)
(51.09 -0.00634504 0)
(51.0604 0.0044519 0)
(51.0608 0.00518112 0)
(51.0673 0.00872608 0)
(51.0727 0.00922121 0)
(51.0779 0.0104955 0)
(51.0849 0.0113625 0)
(51.0907 0.012129 0)
(51.098 0.0140771 0)
(51.1046 0.0163098 0)
(51.1118 0.0203556 0)
(51.1182 0.0254557 0)
(51.1239 0.0327687 0)
(51.1279 0.0415747 0)
(51.1293 0.0521368 0)
(51.1273 0.0631921 0)
(51.1213 0.0737718 0)
(51.1114 0.0819828 0)
(51.0985 0.086417 0)
(51.0844 0.0859219 0)
(51.071 0.0805018 0)
(51.0601 0.0709657 0)
(51.0529 0.0588505 0)
(51.0495 0.0457281 0)
(51.0495 0.0329431 0)
(51.0522 0.0213774 0)
(51.0569 0.0115529 0)
(51.0627 0.00367685 0)
(51.0689 -0.00225322 0)
(51.075 -0.00642225 0)
(51.0803 -0.00912688 0)
(51.0849 -0.0107295 0)
(51.0887 -0.0115593 0)
(51.092 -0.0118866 0)
(51.0948 -0.0118618 0)
(51.0966 -0.0115608 0)
(51.0969 -0.0110536 0)
(51.0952 -0.0103698 0)
(51.0922 -0.00971086 0)
(51.089 -0.00866722 0)
(51.088 -0.0091114 0)
(51.0892 -0.0063374 0)
(51.0605 0.00405658 0)
(51.0609 0.0050234 0)
(51.0673 0.00849751 0)
(51.0727 0.00901372 0)
(51.078 0.0102418 0)
(51.0849 0.0110929 0)
(51.0907 0.0117855 0)
(51.0982 0.0136425 0)
(51.1049 0.0157342 0)
(51.1124 0.0196238 0)
(51.1192 0.0245724 0)
(51.1255 0.0317998 0)
(51.1303 0.040685 0)
(51.1328 0.0516307 0)
(51.1319 0.0635361 0)
(51.1269 0.0755439 0)
(51.1176 0.0857602 0)
(51.1046 0.092575 0)
(51.0894 0.0944558 0)
(51.0742 0.0909474 0)
(51.0609 0.0825096 0)
(51.051 0.0705633 0)
(51.0453 0.0568054 0)
(51.0435 0.0428332 0)
(51.045 0.0297737 0)
(51.0489 0.0183253 0)
(51.0544 0.00882502 0)
(51.0608 0.00137527 0)
(51.0673 -0.00410786 0)
(51.0735 -0.00785225 0)
(51.0788 -0.0101975 0)
(51.0833 -0.011519 0)
(51.0871 -0.0121475 0)
(51.0904 -0.0123239 0)
(51.0929 -0.0121798 0)
(51.0941 -0.0117731 0)
(51.0934 -0.011184 0)
(51.0907 -0.0104444 0)
(51.0875 -0.00977259 0)
(51.0856 -0.00871522 0)
(51.087 -0.00921862 0)
(51.0875 -0.00635644 0)
(51.0606 0.00365453 0)
(51.061 0.00484968 0)
(51.0674 0.0082766 0)
(51.0728 0.00880868 0)
(51.078 0.00998723 0)
(51.0849 0.0108242 0)
(51.0908 0.0114516 0)
(51.0983 0.013222 0)
(51.1052 0.0151767 0)
(51.1129 0.018906 0)
(51.1201 0.0236859 0)
(51.127 0.0307864 0)
(51.1326 0.0396732 0)
(51.1361 0.0508799 0)
(51.1364 0.0634755 0)
(51.1326 0.0767475 0)
(51.1242 0.0888642 0)
(51.1114 0.098093 0)
(51.0955 0.102573 0)
(51.0786 0.101376 0)
(51.0629 0.0945157 0)
(51.0503 0.0831746 0)
(51.042 0.0690834 0)
(51.0381 0.0540745 0)
(51.038 0.039565 0)
(51.0409 0.026476 0)
(51.0458 0.0152821 0)
(51.0521 0.00618485 0)
(51.0589 -0.000810164 0)
(51.0657 -0.00583732 0)
(51.0718 -0.00917156 0)
(51.0771 -0.0111752 0)
(51.0816 -0.0122408 0)
(51.0855 -0.0126793 0)
(51.0887 -0.0127143 0)
(51.0908 -0.0124519 0)
(51.091 -0.0119471 0)
(51.0891 -0.0112827 0)
(51.0859 -0.0105093 0)
(51.0836 -0.00983568 0)
(51.084 -0.00877964 0)
(51.0885 -0.00932223 0)
(51.0451 -0.00622886 0)
(51.0606 0.00325979 0)
(51.061 0.00466302 0)
(51.0675 0.00806074 0)
(51.0728 0.00861563 0)
(51.078 0.00973735 0)
(51.085 0.0105599 0)
(51.0909 0.0111271 0)
(51.0984 0.0128149 0)
(51.1054 0.0146375 0)
(51.1133 0.0182059 0)
(51.1209 0.0228061 0)
(51.1283 0.0297482 0)
(51.1347 0.0385722 0)
(51.1392 0.0499306 0)
(51.1407 0.0630616 0)
(51.1382 0.0774194 0)
(51.1309 0.0912887 0)
(51.1187 0.102895 0)
(51.1025 0.110123 0)
(51.0842 0.111585 0)
(51.0663 0.106792 0)
(51.0509 0.0965548 0)
(51.0397 0.0825162 0)
(51.0332 0.0666871 0)
(51.0312 0.0507983 0)
(51.0328 0.03606 0)
(51.037 0.0231298 0)
(51.0429 0.0123023 0)
(51.0498 0.00365659 0)
(51.057 -0.00286466 0)
(51.0639 -0.0074441 0)
(51.0701 -0.0103836 0)
(51.0755 -0.0120718 0)
(51.0801 -0.0128966 0)
(51.084 -0.0131575 0)
(51.0868 -0.0130545 0)
(51.0881 -0.012681 0)
(51.0871 -0.0120825 0)
(51.0843 -0.0113641 0)
(51.0815 -0.0105694 0)
(51.0812 -0.0099169 0)
(51.0846 -0.00885043 0)
(51.085 -0.00933673 0)
(50.8768 -0.00541547 0)
(51.0607 0.00288912 0)
(51.0611 0.00446641 0)
(51.0676 0.00784879 0)
(51.0728 0.00843493 0)
(51.0781 0.00949695 0)
(51.085 0.0103025 0)
(51.0909 0.010812 0)
(51.0986 0.0124203 0)
(51.1056 0.0141167 0)
(51.1138 0.0175263 0)
(51.1216 0.0219404 0)
(51.1295 0.0287011 0)
(51.1366 0.0374102 0)
(51.142 0.0488248 0)
(51.1448 0.0623462 0)
(51.1437 0.0776076 0)
(51.1377 0.093051 0)
(51.1264 0.106936 0)
(51.1103 0.116977 0)
(51.0911 0.121383 0)
(51.0711 0.119123 0)
(51.0529 0.110533 0)
(51.0386 0.0970218 0)
(51.0293 0.0806766 0)
(51.0249 0.0635291 0)
(51.0249 0.0471384 0)
(51.028 0.0324238 0)
(51.0334 0.0198089 0)
(51.0401 0.00942264 0)
(51.0476 0.00126163 0)
(51.0551 -0.00478604 0)
(51.0621 -0.00892957 0)
(51.0684 -0.0115003 0)
(51.0739 -0.0128909 0)
(51.0786 -0.01349 0)
(51.0823 -0.0135794 0)
(51.0844 -0.0133469 0)
(51.0845 -0.012866 0)
(51.0825 -0.0121933 0)
(51.0798 -0.0114328 0)
(51.0785 -0.0106457 0)
(51.0813 -0.0100037 0)
(51.0843 -0.00897517 0)
(50.9923 -0.00857459 0)
(50.6024 -0.00406586 0)
(51.0607 0.00254471 0)
(51.0612 0.00426552 0)
(51.0676 0.00763215 0)
(51.0728 0.00826494 0)
(51.0781 0.00926638 0)
(51.085 0.0100535 0)
(51.091 0.010506 0)
(51.0986 0.0120373 0)
(51.1058 0.0136135 0)
(51.1141 0.0168682 0)
(51.1222 0.0210939 0)
(51.1306 0.0276573 0)
(51.1383 0.0362112 0)
(51.1447 0.0476016 0)
(51.1486 0.0613819 0)
(51.1489 0.0773671 0)
(51.1444 0.094187 0)
(51.1343 0.110199 0)
(51.1188 0.123041 0)
(51.099 0.130589 0)
(51.0773 0.131284 0)
(51.0564 0.1249 0)
(51.0389 0.112471 0)
(51.0263 0.0960197 0)
(51.0192 0.077814 0)
(51.0172 0.0597948 0)
(51.019 0.0432304 0)
(51.0236 0.0287539 0)
(51.03 0.0165655 0)
(51.0375 0.00667436 0)
(51.0453 -0.000991035 0)
(51.053 -0.00657179 0)
(51.0602 -0.0103047 0)
(51.0668 -0.0125267 0)
(51.0725 -0.0136371 0)
(51.077 -0.0140183 0)
(51.0801 -0.0139468 0)
(51.0812 -0.0135907 0)
(51.0801 -0.0130202 0)
(51.078 -0.0122839 0)
(51.0763 -0.0115118 0)
(51.0775 -0.0107226 0)
(51.0844 -0.0101331 0)
(51.0326 -0.00881139 0)
(50.7545 -0.0066727 0)
(50.2707 -0.00274627 0)
(51.0607 0.00223236 0)
(51.0612 0.00406494 0)
(51.0677 0.00740132 0)
(51.0729 0.00809791 0)
(51.0781 0.0090445 0)
(51.085 0.00981149 0)
(51.091 0.0102084 0)
(51.0987 0.0116652 0)
(51.106 0.0131275 0)
(51.1144 0.0162324 0)
(51.1228 0.0202704 0)
(51.1316 0.0266264 0)
(51.1398 0.0349946 0)
(51.1471 0.0462943 0)
(51.1522 0.0602173 0)
(51.154 0.0767564 0)
(51.151 0.0947466 0)
(51.1424 0.112697 0)
(51.1277 0.128251 0)
(51.1079 0.13905 0)
(51.0849 0.14305 0)
(51.0616 0.139418 0)
(51.0407 0.128682 0)
(51.0247 0.112644 0)
(51.0144 0.0936924 0)
(51.0098 0.0741311 0)
(51.01 0.0556514 0)
(51.0136 0.0392012 0)
(51.0195 0.0251237 0)
(51.0268 0.0134443 0)
(51.0349 0.0040743 0)
(51.043 -0.00309438 0)
(51.051 -0.00823144 0)
(51.0585 -0.0115758 0)
(51.0653 -0.013469 0)
(51.071 -0.014307 0)
(51.0751 -0.0144822 0)
(51.0772 -0.0142594 0)
(51.0771 -0.0137982 0)
(51.0757 -0.0131488 0)
(51.0742 -0.0123797 0)
(51.0744 -0.011584 0)
(51.0798 -0.0108438 0)
(51.0666 -0.0101188 0)
(50.8338 -0.00756801 0)
(50.4332 -0.00456299 0)
(49.9107 -0.00155971 0)
(51.0608 0.00191584 0)
(51.0612 0.00386818 0)
(51.0678 0.00715776 0)
(51.0729 0.00792302 0)
(51.0782 0.00882805 0)
(51.085 0.00957514 0)
(51.0911 0.00991821 0)
(51.0988 0.0113035 0)
(51.1061 0.0126579 0)
(51.1147 0.0156187 0)
(51.1233 0.0194727 0)
(51.1324 0.0256158 0)
(51.1413 0.0337758 0)
(51.1493 0.0449321 0)
(51.1556 0.058898 0)
(51.1587 0.0758342 0)
(51.1574 0.0947892 0)
(51.1504 0.114462 0)
(51.137 0.132578 0)
(51.1176 0.146646 0)
(51.0938 0.15421 0)
(51.0683 0.153831 0)
(51.0443 0.145427 0)
(51.0245 0.130417 0)
(51.0107 0.111161 0)
(51.0031 0.0902501 0)
(51.0011 0.069826 0)
(51.0034 0.0512599 0)
(51.0086 0.0351501 0)
(51.0157 0.0215944 0)
(51.0238 0.0104718 0)
(51.0323 0.00163628 0)
(51.0407 -0.00505468 0)
(51.049 -0.00977176 0)
(51.0569 -0.0127511 0)
(51.0639 -0.0143232 0)
(51.0693 -0.0148997 0)
(51.0725 -0.0148811 0)
(51.0732 -0.0145289 0)
(51.0726 -0.0139768 0)
(51.0719 -0.0132797 0)
(51.0717 -0.012461 0)
(51.0753 -0.0116866 0)
(51.0789 -0.0109808 0)
(50.9203 -0.0091457 0)
(50.5275 -0.00573913 0)
(50.0657 -0.00261653 0)
(49.5423 -0.000578564 0)
(51.0608 0.00163622 0)
(51.0614 0.00367094 0)
(51.0677 0.00690044 0)
(51.0729 0.00773937 0)
(51.0782 0.00861167 0)
(51.0851 0.00934131 0)
(51.0911 0.00963475 0)
(51.0989 0.0109522 0)
(51.1063 0.0122046 0)
(51.1149 0.0150274 0)
(51.1237 0.0187022 0)
(51.1332 0.0246308 0)
(51.1425 0.0325672 0)
(51.1514 0.0435385 0)
(51.1587 0.0574633 0)
(51.1632 0.0746569 0)
(51.1636 0.0943791 0)
(51.1583 0.115544 0)
(51.1465 0.136026 0)
(51.1279 0.153293 0)
(51.1038 0.164582 0)
(51.0767 0.167882 0)
(51.0497 0.162441 0)
(51.0261 0.149144 0)
(51.0083 0.130151 0)
(50.9972 0.108222 0)
(50.9925 0.0859149 0)
(50.993 0.0650958 0)
(50.9974 0.0467521 0)
(51.0041 0.0311617 0)
(51.0122 0.018207 0)
(51.0208 0.00767083 0)
(51.0297 -0.000641819 0)
(51.0385 -0.0068786 0)
(51.0473 -0.0112037 0)
(51.0556 -0.0138271 0)
(51.0625 -0.0150857 0)
(51.0669 -0.015412 0)
(51.0687 -0.0152259 0)
(51.0687 -0.014765 0)
(51.0688 -0.0141574 0)
(51.0692 -0.0133941 0)
(51.0713 -0.0125564 0)
(51.0795 -0.0118576 0)
(50.9897 -0.0104617 0)
(50.6355 -0.00716199 0)
(50.1622 -0.00398471 0)
(49.6788 -0.000960777 0)
(49.1785 0.000173583 0)
(51.0609 0.00137756 0)
(51.0614 0.00350016 0)
(51.0679 0.00666148 0)
(51.0729 0.0075446 0)
(51.0782 0.00839379 0)
(51.0851 0.00910658 0)
(51.0911 0.00935731 0)
(51.0989 0.0106115 0)
(51.1064 0.0117678 0)
(51.1151 0.0144584 0)
(51.1241 0.0179602 0)
(51.1339 0.0236752 0)
(51.1437 0.0313783 0)
(51.1532 0.0421333 0)
(51.1615 0.0559482 0)
(51.1674 0.0732768 0)
(51.1694 0.0935824 0)
(51.166 0.116008 0)
(51.1559 0.138622 0)
(51.1386 0.158945 0)
(51.1148 0.174017 0)
(51.0865 0.181327 0)
(51.0569 0.179437 0)
(51.0296 0.168575 0)
(51.0075 0.150524 0)
(50.9924 0.128055 0)
(50.9844 0.104064 0)
(50.9827 0.0809202 0)
(50.9857 0.0601105 0)
(50.9919 0.0422426 0)
(50.9999 0.027296 0)
(51.0088 0.0149952 0)
(51.0179 0.00504519 0)
(51.0271 -0.00276432 0)
(51.0365 -0.00857952 0)
(51.0459 -0.012526 0)
(51.0544 -0.0147981 0)
(51.0604 -0.0157491 0)
(51.0634 -0.0158531 0)
(51.064 -0.0155283 0)
(51.0647 -0.0150028 0)
(51.0661 -0.0143286 0)
(51.0678 -0.0135022 0)
(51.0749 -0.0127131 0)
(51.0393 -0.0117087 0)
(50.7372 -0.008603 0)
(50.2761 -0.00514287 0)
(49.7686 -0.0024176 0)
(49.2901 0.000339545 0)
(48.8278 0.000706628 0)
(51.0609 0.00115868 0)
(51.0615 0.00334165 0)
(51.0679 0.00641607 0)
(51.0729 0.00737599 0)
(51.0782 0.00817267 0)
(51.0851 0.00887108 0)
(51.0911 0.0090857 0)
(51.099 0.0102821 0)
(51.1065 0.011348 0)
(51.1153 0.0139122 0)
(51.1245 0.0172476 0)
(51.1345 0.022752 0)
(51.1447 0.0302159 0)
(51.1549 0.0407323 0)
(51.1641 0.0543819 0)
(51.1713 0.0717412 0)
(51.1749 0.0924635 0)
(51.1734 0.115923 0)
(51.1653 0.140416 0)
(51.1496 0.163594 0)
(51.1265 0.182408 0)
(51.0976 0.193948 0)
(51.0659 0.19612 0)
(51.0351 0.188417 0)
(51.0086 0.172068 0)
(50.989 0.149678 0)
(50.9772 0.124362 0)
(50.9725 0.0989502 0)
(50.9738 0.0754762 0)
(50.9791 0.0550213 0)
(50.9869 0.037817 0)
(50.996 0.023602 0)
(51.0054 0.0119722 0)