/*--------------------------------*- C++ -*----------------------------------*\
  =========                 |
  \\      /  F ield         | OpenFOAM: The Open Source CFD Toolbox
   \\    /   O peration     | Website:  https://openfoam.org
    \\  /    A nd           | Version:  dev
     \\/     M anipulation  |
\*---------------------------------------------------------------------------*/
FoamFile
{
    version     2.0;
    format      ascii;
    class       volScalarField;
    location    "225";
    object      yPlus;
}
// * * * * * * * * * * * * * * * * * * * * * * * * * * * * * * * * * * * * * //

dimensions      [0 0 0 0 0 0 0];

internalField   uniform 0;

boundaryField
{
    inlet-l
    {
        type            calculated;
        value           uniform 0;
    }
    airfoil-l1
    {
        type            calculated;
        value           nonuniform List<scalar> 
71
(
191.483
214.734
249.817
283.625
310.199
327.602
337.917
343.096
344.631
343.654
340.857
336.996
331.639
325.224
318.149
310.681
302.991
295.185
287.319
279.473
271.71
264.048
256.52
249.153
241.975
235.01
228.281
221.801
215.615
209.754
204.253
199.155
194.503
190.339
186.721
183.683
181.248
179.405
178.114
177.326
176.925
176.831
177.006
177.305
177.718
178.088
178.458
178.707
178.832
178.789
178.592
178.153
177.448
176.544
175.4
173.986
172.384
170.541
168.529
166.319
163.995
161.529
158.968
156.338
153.644
150.937
148.218
145.535
142.87
140.364
137.734
)
;
    }
    empty-1
    {
        type            empty;
    }
    empty-2
    {
        type            empty;
    }
    wall-l1
    {
        type            calculated;
        value           nonuniform List<scalar> 
104
(
17.9562
17.2614
22.3102
20.1244
17.7865
17.5015
18.1832
18.8333
18.8392
18.913
18.9074
19.0652
19.1195
18.9741
18.7928
18.4297
18.0998
17.8593
17.7851
17.9741
18.2985
18.6592
18.9123
18.971
18.8415
18.5689
18.2488
17.9739
17.8095
17.7809
17.864
18.0005
18.1228
18.1817
18.1571
18.0676
17.9536
17.8597
17.8154
17.8252
17.8711
17.9204
17.9411
17.9149
17.841
17.7346
17.6208
17.5235
17.4603
17.4356
17.446
17.4811
17.5253
17.5653
17.5877
17.5851
17.5523
17.4907
17.4046
17.3014
17.1893
17.0759
16.9663
16.864
16.769
16.6796
16.5952
16.5138
16.4333
16.3526
16.2715
16.1881
16.1025
16.0143
15.9238
15.8318
15.7388
15.6469
15.5576
15.4719
15.3907
15.3139
15.2405
15.1697
15.0994
15.0282
14.955
14.8795
14.8019
14.724
14.6474
14.5751
14.5084
14.4499
14.3993
14.3576
14.3242
14.2989
14.2825
14.2744
14.2742
14.2792
14.2905
14.2727
)
;
    }
    airfoil-l2
    {
        type            calculated;
        value           nonuniform List<scalar> 
104
(
137.381
139.749
141.595
142.926
143.891
144.574
145.035
145.315
145.463
145.507
145.431
145.255
145.012
144.724
144.399
144.045
143.662
143.278
142.872
142.453
142.029
141.6
141.164
140.718
140.269
139.82
139.368
138.913
138.455
137.992
137.521
137.06
136.604
136.138
135.668
135.201
134.735
134.271
133.806
133.337
132.866
132.395
131.922
131.452
130.983
130.513
130.04
129.566
129.093
128.618
128.139
127.658
127.178
126.699
126.218
125.733
125.24
124.746
124.251
123.756
123.255
122.756
122.256
121.738
121.213
120.679
120.138
119.592
119.049
118.513
117.971
117.413
116.847
116.263
115.64
115.003
114.343
113.665
112.993
112.33
111.672
110.993
110.29
109.529
108.705
107.838
106.946
106.042
105.129
104.222
103.286
102.285
101.181
99.9453
98.5559
97.0017
95.284
93.4131
91.3981
89.2115
86.8487
84.0513
80.9998
75.0902
)
;
    }
    empty-3
    {
        type            empty;
    }
    empty-4
    {
        type            empty;
    }
    wall-l2
    {
        type            calculated;
        value           nonuniform List<scalar> 
51
(
14.3465
14.3743
14.3519
14.37
14.3717
14.4543
14.506
14.5844
14.6703
14.7694
14.8786
14.9838
15.0915
15.1954
15.3046
15.4216
15.5483
15.6876
15.8321
15.9803
16.1284
16.2772
16.4303
16.5923
16.7678
16.9598
17.1679
17.3895
17.6193
17.8518
18.0825
18.3086
18.5299
18.747
18.9615
19.1733
19.3819
19.5846
19.7791
19.9612
20.1292
20.2794
20.4113
20.5227
20.6147
20.6876
20.7469
20.7972
20.8632
20.9315
21.2128
)
;
    }
    outlet-l
    {
        type            calculated;
        value           uniform 0;
    }
    empty-5
    {
        type            empty;
    }
    empty-6
    {
        type            empty;
    }
    outlet-h
    {
        type            calculated;
        value           uniform 0;
    }
    wall-h2
    {
        type            calculated;
        value           nonuniform List<scalar> 
51
(
14.5529
14.5873
14.6203
14.6729
14.7405
14.8205
14.911
15.0148
15.1311
15.2574
15.3912
15.5297
15.6712
15.8138
15.957
16.101
16.247
16.3965
16.5516
16.714
16.8854
17.0668
17.2591
17.4621
17.6753
17.8979
18.1285
18.3657
18.6083
18.8547
19.1041
19.3553
19.6074
19.8592
20.1097
20.3572
20.6001
20.836
21.063
21.2784
21.4796
21.6643
21.8302
21.9759
22.1008
22.206
22.2951
22.3723
22.4601
22.542
22.84
)
;
    }
    empty-7
    {
        type            empty;
    }
    empty-8
    {
        type            empty;
    }
    airfoil-h2
    {
        type            calculated;
        value           nonuniform List<scalar> 
104
(
136.029
138.361
140.192
141.522
142.495
143.2
143.687
144.003
144.186
144.275
144.264
144.161
143.99
143.765
143.495
143.198
142.873
142.541
142.184
141.823
141.45
141.066
140.673
140.277
139.874
139.458
139.047
138.63
138.203
137.779
137.347
136.91
136.471
136.042
135.606
135.161
134.709
134.255
133.806
133.35
132.9
132.443
131.984
131.522
131.062
130.599
130.132
129.662
129.192
128.716
128.248
127.763
127.282
126.803
126.316
125.828
125.342
124.849
124.347
123.851
123.343
122.844
122.329
121.811
121.282
120.746
120.201
119.651
119.109
118.576
118.034
117.491
116.916
116.304
115.656
114.983
114.318
113.664
113.036
112.413
111.765
111.074
110.318
109.497
108.645
107.787
106.932
106.083
105.222
104.322
103.356
102.302
101.145
99.8803
98.4862
96.9534
95.271
93.4386
91.4588
89.3082
86.9717
84.1747
81.097
75.0761
)
;
    }
    wall-h1
    {
        type            calculated;
        value           nonuniform List<scalar> 
104
(
17.1904
17.337
17.6106
17.6004
17.5784
17.6066
17.682
17.7537
17.7763
17.7934
17.798
17.8099
17.819
17.8169
17.8109
17.7953
17.7813
17.7721
17.7701
17.7767
17.7837
17.7868
17.7797
17.7608
17.7303
17.691
17.6462
17.5995
17.5553
17.517
17.49
17.4752
17.4729
17.4801
17.491
17.5011
17.5066
17.5063
17.5017
17.4952
17.49
17.4855
17.4819
17.4748
17.4621
17.4396
17.4066
17.3634
17.3117
17.2542
17.1926
17.1302
17.0688
17.0089
16.9511
16.8965
16.8443
16.7957
16.7508
16.7109
16.6744
16.641
16.608
16.5731
16.5329
16.4842
16.4271
16.3611
16.2864
16.2051
16.1188
16.029
15.9368
15.8442
15.7519
15.661
15.5716
15.4847
15.4016
15.3223
15.2466
15.1748
15.1065
15.0396
14.9744
14.9097
14.8459
14.7837
14.7232
14.6657
14.6109
14.5605
14.5151
14.4775
14.4479
14.4276
14.4143
14.4084
14.41
14.4178
14.4322
14.4518
14.4787
14.5024
)
;
    }
    empty-9
    {
        type            empty;
    }
    empty-10
    {
        type            empty;
    }
    inlet-h
    {
        type            calculated;
        value           uniform 0;
    }
    airfoil-h1
    {
        type            calculated;
        value           nonuniform List<scalar> 
71
(
189.636
210.07
244.584
279.136
307.479
326.862
338.924
345.491
348.064
347.811
345.504
341.863
336.787
330.455
323.313
315.671
307.727
299.608
291.376
283.138
274.95
266.838
258.852
251.021
243.355
235.903
228.684
221.737
215.079
208.747
202.79
197.258
192.194
187.645
183.681
180.328
177.622
175.573
174.13
173.228
172.778
172.673
172.844
173.198
173.7
174.175
174.627
174.987
175.24
175.356
175.268
175.007
174.487
173.735
172.728
171.456
169.975
168.271
166.346
164.255
162.002
159.621
157.136
154.576
151.956
149.29
146.645
144.006
141.408
138.968
136.393
)
;
    }
    empty-11
    {
        type            empty;
    }
    empty-12
    {
        type            empty;
    }
}


// ************************************************************************* //
