/*--------------------------------*- C++ -*----------------------------------*\
  =========                 |
  \\      /  F ield         | OpenFOAM: The Open Source CFD Toolbox
   \\    /   O peration     | Website:  https://openfoam.org
    \\  /    A nd           | Version:  dev
     \\/     M anipulation  |
\*---------------------------------------------------------------------------*/
FoamFile
{
    version     2.0;
    format      ascii;
    class       surfaceScalarField;
    location    "425";
    object      phi;
}
// * * * * * * * * * * * * * * * * * * * * * * * * * * * * * * * * * * * * * //

dimensions      [0 3 -1 0 0 0 0];

internalField   nonuniform List<scalar> 
58294
(
-0.473377
9.78495e-06
-0.473363
-1.85331e-05
-0.429549
-4.86693e-06
-0.473347
-2.99982e-05
-0.429559
-8.94995e-06
-0.38983
-1.40114e-05
-0.473336
-2.89605e-05
-0.429581
-7.87394e-06
-0.389846
6.36863e-06
-0.353815
-1.77359e-05
-0.473333
-1.90661e-05
-0.429605
-4.63348e-06
-0.389871
1.74944e-05
-0.353813
5.08335e-06
-0.321097
-1.58234e-05
-0.473337
-4.43079e-06
-0.429624
-1.1218e-07
-0.389895
1.97537e-05
-0.353811
1.55464e-05
-0.321092
5.51624e-07
-0.291388
-1.54308e-05
-0.473347
9.05242e-06
-0.429632
4.11341e-06
-0.389911
1.56106e-05
-0.35381
1.82958e-05
-0.321083
6.58616e-06
-0.291385
-2.33536e-06
-0.264432
-1.8841e-05
-0.473356
1.70784e-05
-0.42963
6.48259e-06
-0.389914
7.27764e-06
-0.353809
1.48934e-05
-0.321074
9.516e-06
-0.291381
2.51698e-06
-0.264426
-7.76899e-06
-0.239968
-2.2597e-05
-0.473363
1.79978e-05
-0.429619
6.25003e-06
-0.389906
-1.44867e-06
-0.353809
7.63604e-06
-0.321069
9.07973e-06
-0.291376
5.43723e-06
-0.264421
-2.84416e-06
-0.239963
-1.26292e-05
-0.217762
-2.71909e-05
-0.473364
1.29968e-05
-0.429605
3.65506e-06
-0.389893
-7.51514e-06
-0.353811
9.88477e-08
-0.321068
6.56255e-06
-0.291373
5.94039e-06
-0.264416
1.05418e-06
-0.239959
-7.3171e-06
-0.217756
-1.77059e-05
-0.197612
-3.20093e-05
-0.47336
5.15499e-06
-0.429592
-1.8657e-07
-0.38988
-9.45868e-06
-0.353814
-4.86477e-06
-0.321071
3.73888e-06
-0.291372
5.19691e-06
-0.264414
3.30051e-06
-0.239955
-2.56211e-06
-0.217752
-1.19687e-05
-0.197607
-2.28821e-05
-0.179327
-3.7081e-05
-0.473353
-2.05406e-06
-0.429583
-3.79864e-06
-0.389872
-7.61357e-06
-0.353817
-5.9488e-06
-0.321078
1.94102e-06
-0.291373
4.49582e-06
-0.264413
4.67993e-06
-0.239953
9.63124e-07
-0.217748
-6.42936e-06
-0.197602
-1.67118e-05
-0.179321
-2.80695e-05
-0.162731
-4.20764e-05
-0.473346
-6.17382e-06
-0.429579
-5.91479e-06
-0.389872
-3.63921e-06
-0.353821
-3.55148e-06
-0.321086
1.87395e-06
-0.291376
4.77101e-06
-0.264415
6.05892e-06
-0.239952
3.87609e-06
-0.217745
-1.75493e-06
-0.197598
-1.05012e-05
-0.179317
-2.15354e-05
-0.162726
-3.32259e-05
-0.147673
-4.70693e-05
-0.473341
-6.48807e-06
-0.429579
-5.90653e-06
-0.389879
4.42639e-07
-0.353826
6.67878e-07
-0.321093
3.38465e-06
-0.29138
6.29575e-06
-0.264418
7.98372e-06
-0.239953
6.76133e-06
-0.217744
2.48895e-06
-0.197595
-4.89631e-06
-0.179312
-1.47734e-05
-0.162721
-2.63364e-05
-0.147668
-3.82406e-05
-0.134009
-5.18531e-05
-0.47334
-3.96012e-06
-0.429582
-3.95253e-06
-0.389888
3.09253e-06
-0.35383
4.73099e-06
-0.321098
5.7967e-06
-0.291385
8.79491e-06
-0.264422
1.06255e-05
-0.239955
1.00298e-05
-0.217744
6.74827e-06
-0.197593
4.79743e-07
-0.179309
-8.38738e-06
-0.162717
-1.91309e-05
-0.147663
-3.11043e-05
-0.134004
-4.3147e-05
-0.121606
-5.65651e-05
-0.473342
-4.60159e-07
-0.429585
-8.327e-07
-0.389895
3.81501e-06
-0.353834
7.16371e-06
-0.321101
8.1713e-06
-0.291391
1.15455e-05
-0.264427
1.36739e-05
-0.239958
1.3715e-05
-0.217745
1.1272e-05
-0.197592
5.93205e-06
-0.179306
-2.09278e-06
-0.162713
-1.21555e-05
-0.147658
-2.35607e-05
-0.133999
-3.57365e-05
-0.121601
-4.78568e-05
-0.110353
-6.09701e-05
-0.473346
2.16676e-06
-0.429588
2.37993e-06
-0.389899
3.06289e-06
-0.353838
7.50703e-06
-0.321104
9.80274e-06
-0.291397
1.38295e-05
-0.264432
1.66197e-05
-0.239962
1.75599e-05
-0.217747
1.60565e-05
-0.197593
1.16445e-05
-0.179305
4.38009e-06
-0.16271
-5.12412e-06
-0.147655
-1.6106e-05
-0.133995
-2.79416e-05
-0.121597
-4.02188e-05
-0.110348
-5.24185e-05
-0.100142
-6.52057e-05
-0.473351
2.88088e-06
-0.42959
4.77496e-06
-0.389899
1.86195e-06
-0.353841
6.26496e-06
-0.321107
1.03475e-05
-0.291402
1.5107e-05
-0.264437
1.88911e-05
-0.239966
2.10898e-05
-0.217751
2.08291e-05
-0.197594
1.75424e-05
-0.179304
1.1137e-05
-0.162708
2.16474e-06
-0.147651
-8.51143e-06
-0.133991
-2.01546e-05
-0.121592
-3.22463e-05
-0.110344
-4.44807e-05
-0.100137
-5.67493e-05
-0.0908755
-6.90034e-05
-0.473354
1.68347e-06
-0.429593
5.80085e-06
-0.389895
1.14293e-06
-0.353844
4.47411e-06
-0.321111
9.94141e-06
-0.291407
1.52533e-05
-0.264442
2.01454e-05
-0.239971
2.3847e-05
-0.217755
2.51591e-05
-0.197597
2.33374e-05
-0.179305
1.80826e-05
-0.162706
9.80564e-06
-0.147648
-5.65738e-07
-0.133987
-1.21302e-05
-0.121588
-2.42087e-05
-0.11034
-3.64029e-05
-0.100133
-4.85615e-05
-0.0908714
-6.08879e-05
-0.0824676
-7.25335e-05
-0.473357
-5.91364e-07
-0.429597
5.42229e-06
-0.389891
1.37448e-06
-0.353846
3.12347e-06
-0.321115
8.94802e-06
-0.291412
1.44518e-05
-0.264447
2.02896e-05
-0.239976
2.5519e-05
-0.21776
2.86406e-05
-0.1976
2.86308e-05
-0.179306
2.49233e-05
-0.162706
1.76789e-05
-0.147646
7.7874e-06
-0.133984
-3.69211e-06
-0.121585
-1.59036e-05
-0.110336
-2.82333e-05
-0.100129
-4.04305e-05
-0.0908675
-5.23966e-05
-0.0824637
-6.47362e-05
-0.074831
-7.55684e-05
-0.473357
-2.82338e-06
-0.429602
3.94837e-06
-0.389888
2.35429e-06
-0.353847
2.71325e-06
-0.32112
7.80718e-06
-0.291416
1.3104e-05
-0.264453
1.95291e-05
-0.239982
2.60457e-05
-0.217765
3.09838e-05
-0.197605
3.30122e-05
-0.179309
3.12493e-05
-0.162707
2.5496e-05
-0.147645
1.64373e-05
-0.133981
5.21662e-06
-0.121581
-7.11075e-06
-0.110332
-1.97546e-05
-0.100125
-3.21759e-05
-0.0908636
-4.42837e-05
-0.0824601
-5.60021e-05
-0.0748273
-6.83606e-05
-0.0679095
-7.83958e-05
-0.473357
-4.11815e-06
-0.429606
1.92132e-06
-0.389887
3.47539e-06
-0.353848
3.12878e-06
-0.321124
6.77314e-06
-0.29142
1.15928e-05
-0.264458
1.81886e-05
-0.239988
2.55874e-05
-0.217771
3.21226e-05
-0.19761
3.62264e-05
-0.179313
3.66833e-05
-0.162708
3.2871e-05
-0.147645
2.51119e-05
-0.133979
1.44814e-05
-0.121578
2.20423e-06
-0.110328
-1.07386e-05
-0.100121
-2.36286e-05
-0.0908598
-3.60269e-05
-0.0824564
-4.79591e-05
-0.074824
-5.92835e-05
-0.0679061
-7.17587e-05
-0.0616215
-8.0769e-05
-0.473355
-4.14466e-06
-0.42961
-1.54242e-07
-0.38989
4.01475e-06
-0.353848
3.81147e-06
-0.321127
5.90503e-06
-0.291423
1.01824e-05
-0.264463
1.66242e-05
-0.239995
2.44438e-05
-0.217778
3.21865e-05
-0.197616
3.81781e-05
-0.179317
4.09398e-05
-0.162711
3.94131e-05
-0.147645
3.3444e-05
-0.133978
2.38567e-05
-0.121576
1.19362e-05
-0.110325
-1.14492e-06
-0.100118
-1.44856e-05
-0.090856
-2.74729e-05
-0.0824527
-3.97354e-05
-0.0748206
-5.13861e-05
-0.0679031
-6.23157e-05
-0.0616182
-7.50008e-05
-0.0559209
-8.29413e-05
-0.473354
-3.13001e-06
-0.429613
-1.87169e-06
-0.389893
3.54462e-06
-0.353848
4.11016e-06
-0.321128
5.07156e-06
-0.291426
8.93601e-06
-0.264468
1.50674e-05
-0.240001
2.29332e-05
-0.217785
3.14322e-05
-0.197623
3.89812e-05
-0.179323
4.39201e-05
-0.162715
4.48427e-05
-0.147647
4.10705e-05
-0.133978
3.30139e-05
-0.121574
2.186e-05
-0.110322
8.91993e-06
-0.100114
-4.72018e-06
-0.0908522
-1.82806e-05
-0.082449
-3.12484e-05
-0.0748171
-4.3261e-05
-0.0678999
-5.45685e-05
-0.0616155
-6.50355e-05
-0.0559178
-7.80449e-05
-0.0507475
-8.46558e-05
-0.473353
-1.65795e-06
-0.429613
-3.03885e-06
-0.389898
2.0489e-06
-0.353848
3.59483e-06
-0.321128
4.11895e-06
-0.291429
7.7896e-06
-0.264472
1.36131e-05
-0.240007
2.12969e-05
-0.217792
3.01528e-05
-0.19763
3.88433e-05
-0.17933
4.5683e-05
-0.16272
4.90087e-05
-0.14765
4.769e-05
-0.133978
4.16117e-05
-0.121572
3.16848e-05
-0.110319
1.92495e-05
-0.100111
5.55918e-06
-0.0908485
-8.42787e-06
-0.0824452
-2.20644e-05
-0.0748135
-3.48926e-05
-0.0678966
-4.65494e-05
-0.0616126
-5.74909e-05
-0.0559153
-6.75287e-05
-0.0507446
-8.09456e-05
-0.0460497
-8.61983e-05
-0.473352
-3.49225e-07
-0.429611
-3.59823e-06
-0.3899
-6.34916e-08
-0.353849
2.23673e-06
-0.321127
2.95522e-06
-0.291431
6.62286e-06
-0.264477
1.22239e-05
-0.240013
1.9651e-05
-0.217799
2.85805e-05
-0.197638
3.80255e-05
-0.179337
4.63968e-05
-0.162726
5.19322e-05
-0.147654
5.31309e-05
-0.13398
4.93637e-05
-0.121572
4.1107e-05
-0.110317
2.95861e-05
-0.100108
1.61578e-05
-0.0908449
1.96808e-06
-0.0824414
-1.21847e-05
-0.0748098
-2.57736e-05
-0.0678931
-3.83553e-05
-0.0616095
-4.96044e-05
-0.0559127
-6.01847e-05
-0.0507424
-6.97314e-05
-0.046047
-8.36831e-05
-0.0417887
-8.73155e-05
-0.473351
3.80973e-07
-0.429608
-3.62903e-06
-0.389902
-2.20607e-06
-0.353849
3.58064e-07
-0.321127
1.63885e-06
-0.291434
5.36554e-06
-0.264481
1.08179e-05
-0.240019
1.80013e-05
-0.217806
2.68522e-05
-0.197646
3.67366e-05
-0.179346
4.62741e-05
-0.162734
5.3715e-05
-0.147659
5.73491e-05
-0.133983
5.60666e-05
-0.121572
4.98572e-05
-0.110316
3.96676e-05
-0.100105
2.68544e-05
-0.0908415
1.2717e-05
-0.0824377
-1.75158e-06
-0.074806
-1.59267e-05
-0.0678896
-2.93551e-05
-0.0616063
-4.16157e-05
-0.0559098
-5.24345e-05
-0.0507399
-6.26583e-05
-0.046045
-7.17519e-05
-0.0417861
-8.63014e-05
-0.037922
-8.82933e-05
-0.473351
4.34449e-07
-0.429604
-3.24318e-06
-0.389902
-3.81131e-06
-0.35385
-1.53196e-06
-0.321127
3.2896e-07
-0.291436
4.03477e-06
-0.264485
9.3287e-06
-0.240024
1.62991e-05
-0.217813
2.50043e-05
-0.197654
3.51111e-05
-0.179354
4.54941e-05
-0.162742
5.45223e-05
-0.147666
6.03874e-05
-0.133987
6.16368e-05
-0.121574
5.77322e-05
-0.110315
4.92534e-05
-0.100103
3.74229e-05
-0.0908382
2.36245e-05
-0.0824341
9.04149e-06
-0.0748023
-5.51967e-06
-0.0678859
-1.95916e-05
-0.0616028
-3.27727e-05
-0.0559068
-4.468e-05
-0.0507373
-5.5058e-05
-0.0460427
-6.49321e-05
-0.0417843
-7.35162e-05
-0.0379195
-8.8773e-05
-0.0344123
-8.88973e-05
-0.47335
-1.68962e-08
-0.429601
-2.59116e-06
-0.389901
-4.5613e-06
-0.353851
-2.96721e-06
-0.321128
-7.68487e-07
-0.291438
2.72939e-06
-0.264489
7.76551e-06
-0.240029
1.44978e-05
-0.21782
2.30266e-05
-0.197663
3.32049e-05
-0.179363
4.41827e-05
-0.162751
5.44949e-05
-0.147674
6.23494e-05
-0.133993
6.60513e-05
-0.121577
6.46158e-05
-0.110316
5.81511e-05
-0.100101
4.76647e-05
-0.0908353
3.45172e-05
-0.0824305
2.00341e-05
-0.0747984
5.23635e-06
-0.0678822
-9.2697e-06
-0.0615993
-2.31353e-05
-0.0559035
-3.6017e-05
-0.0507344
-4.75526e-05
-0.0460403
-5.74828e-05
-0.0417822
-6.70186e-05
-0.0379179
-7.51266e-05
-0.03441
-9.11343e-05
-0.0312275
-8.94127e-05
-0.47335
-6.57988e-07
-0.4296
-1.79832e-06
-0.389899
-4.41777e-06
-0.353852
-3.67772e-06
-0.321129
-1.50392e-06
-0.291441
1.58069e-06
-0.264492
6.19978e-06
-0.240034
1.26104e-05
-0.217826
2.08991e-05
-0.197671
3.10355e-05
-0.179373
4.24004e-05
-0.16276
5.37397e-05
-0.147683
6.33284e-05
-0.134
6.93503e-05
-0.121581
7.04363e-05
-0.110317
6.62342e-05
-0.1001
5.74063e-05
-0.0908329
4.52303e-05
-0.082427
3.10901e-05
-0.0747946
1.61985e-05
-0.0678783
1.3789e-06
-0.0615956
-1.29346e-05
-0.0559002
-2.65176e-05
-0.0507314
-3.90786e-05
-0.0460376
-5.02346e-05
-0.04178
-5.97158e-05
-0.037916
-6.89175e-05
-0.0344086
-7.65014e-05
-0.0312253
-9.33657e-05
-0.028338
-8.96178e-05
-0.473349
-1.18576e-06
-0.4296
-9.95342e-07
-0.389897
-3.60659e-06
-0.353852
-3.654e-06
-0.321131
-1.82752e-06
-0.291443
6.94678e-07
-0.264495
4.74566e-06
-0.240039
1.0698e-05
-0.217832
1.86544e-05
-0.197678
2.8618e-05
-0.179382
4.01925e-05
-0.16277
5.23193e-05
-0.147692
6.34037e-05
-0.134008
7.15706e-05
-0.121587
7.51768e-05
-0.11032
7.34014e-05
-0.100101
6.65275e-05
-0.0908311
5.56273e-05
-0.0824239
4.21035e-05
-0.0747908
2.72893e-05
-0.0678743
1.22345e-05
-0.0615918
-2.43702e-06
-0.0558966
-1.64578e-05
-0.0507282
-2.97262e-05
-0.0460347
-4.19554e-05
-0.0417775
-5.27312e-05
-0.037914
-6.17672e-05
-0.0344069
-7.06472e-05
-0.0312241
-7.7756e-05
-0.0283358
-9.55023e-05
-0.0257155
-8.97793e-05
-0.473349
-1.41381e-06
-0.4296
-2.78484e-07
-0.389896
-2.47659e-06
-0.353853
-3.09086e-06
-0.321133
-1.80613e-06
-0.291445
1.09174e-07
-0.264498
3.50701e-06
-0.240043
8.86981e-06
-0.217838
1.63577e-05
-0.197686
2.60139e-05
-0.179391
3.75963e-05
-0.16278
5.02874e-05
-0.147703
6.26213e-05
-0.134017
7.27487e-05
-0.121594
7.88138e-05
-0.110325
7.95899e-05
-0.100102
7.49119e-05
-0.0908302
6.55965e-05
-0.0824213
5.2964e-05
-0.0747872
3.84401e-05
-0.0678703
2.32476e-05
-0.0615878
8.2399e-06
-0.0558929
-6.14555e-06
-0.0507248
-1.98075e-05
-0.0460317
-3.27438e-05
-0.0417748
-4.46469e-05
-0.0379117
-5.50443e-05
-0.034405
-6.36336e-05
-0.0312225
-7.22059e-05
-0.0283348
-7.88132e-05
-0.0257135
-9.75238e-05
-0.0233363
-8.97047e-05
-0.47335
-1.30819e-06
-0.429602
2.63199e-07
-0.389895
-1.39e-06
-0.353853
-2.29161e-06
-0.321134
-1.57893e-06
-0.291446
-2.11974e-07
-0.2645
2.53859e-06
-0.240047
7.23046e-06
-0.217843
1.41204e-05
-0.197693
2.33095e-05
-0.179399
3.47099e-05
-0.162791
4.77027e-05
-0.147713
6.10373e-05
-0.134028
7.28991e-05
-0.121603
8.13274e-05
-0.11033
8.47231e-05
-0.100105
8.24689e-05
-0.0908303
7.50229e-05
-0.0824193
6.35863e-05
-0.0747838
4.95908e-05
-0.0678663
3.44102e-05
-0.0615837
1.90961e-05
-0.055889
4.3123e-06
-0.0507213
-9.68932e-06
-0.0460286
-2.29652e-05
-0.041772
-3.55773e-05
-0.0379092
-4.71581e-05
-0.0344029
-5.71788e-05
-0.0312208
-6.53392e-05
-0.0283334
-7.36301e-05
-0.0257126
-7.9785e-05
-0.0233344
-9.94656e-05
-0.0211761
-8.96287e-05
-0.473351
-9.629e-07
-0.429604
5.77523e-07
-0.389894
-6.03103e-07
-0.353853
-1.54646e-06
-0.321135
-1.30828e-06
-0.291448
-3.57888e-07
-0.264502
1.8361e-06
-0.24005
5.84897e-06
-0.217848
1.20507e-05
-0.197699
2.06291e-05
-0.179408
3.16355e-05
-0.1628
4.46814e-05
-0.147724
5.87087e-05
-0.134039
7.20604e-05
-0.121613
8.26889e-05
-0.110338
8.87279e-05
-0.100109
8.90834e-05
-0.0908316
8.38034e-05
-0.0824181
7.38583e-05
-0.0747809
6.0669e-05
-0.0678624
4.56854e-05
-0.0615794
3.01503e-05
-0.0558849
1.4931e-05
-0.0507175
5.08763e-07
-0.0460252
-1.3052e-05
-0.041769
-2.59289e-05
-0.0379065
-3.82234e-05
-0.0344006
-4.94914e-05
-0.0312189
-5.91398e-05
-0.0283318
-6.68829e-05
-0.0257113
-7.49088e-05
-0.0233335
-8.05975e-05
-0.0211743
-0.000101305
-0.0192168
-8.93691e-05
-0.473351
-5.34382e-07
-0.429606
6.40073e-07
-0.389893
-2.44365e-07
-0.353853
-1.05465e-06
-0.321136
-1.12194e-06
-0.291449
-4.3399e-07
-0.264504
1.34247e-06
-0.240053
4.74087e-06
-0.217853
1.02235e-05
-0.197705
1.80926e-05
-0.179416
2.85225e-05
-0.16281
4.1346e-05
-0.147736
5.57681e-05
-0.13405
7.02766e-05
-0.121624
8.28966e-05
-0.110347
9.15173e-05
-0.100115
9.46345e-05
-0.0908344
9.1798e-05
-0.082418
8.36725e-05
-0.0747786
7.15781e-05
-0.0678587
5.7035e-05
-0.0615752
4.14152e-05
-0.0558805
2.57885e-05
-0.0507134
1.08451e-05
-0.0460216
-3.12158e-06
-0.0417659
-1.62103e-05
-0.0379038
-2.86978e-05
-0.0343981
-4.06926e-05
-0.0312167
-5.16491e-05
-0.02833
-6.09385e-05
-0.0257099
-6.82956e-05
-0.0233324
-7.60815e-05
-0.0211736
-8.13593e-05
-0.0192151
-0.000103066
-0.0174382
-8.91146e-05
-0.473353
-1.68977e-07
-0.429607
4.70454e-07
-0.389892
-2.93332e-07
-0.353852
-8.92296e-07
-0.321136
-1.08453e-06
-0.291449
-5.24907e-07
-0.264505
9.77381e-07
-0.240055
3.8722e-06
-0.217857
8.66905e-06
-0.197711
1.578e-05
-0.179423
2.55022e-05
-0.16282
3.78615e-05
-0.147747
5.23402e-05
-0.134062
6.76796e-05
-0.121635
8.19692e-05
-0.110357
9.30455e-05
-0.100123
9.89862e-05
-0.0908386
9.88571e-05
-0.082419
9.28842e-05
-0.0747771
8.22164e-05
-0.0678555
6.83732e-05
-0.061571
5.28648e-05
-0.055876
3.69174e-05
-0.050709
2.14231e-05
-0.0460176
6.8891e-06
-0.0417624
-6.56246e-06
-0.0379008
-1.91746e-05
-0.0343955
-3.12799e-05
-0.0312144
-4.29789e-05
-0.0283281
-5.36384e-05
-0.0257083
-6.25849e-05
-0.0233311
-6.95688e-05
-0.0211726
-7.71334e-05
-0.0192144
-8.19976e-05
-0.0174366
-0.000104717
-0.0158247
-8.87238e-05
-0.473353
3.8935e-08
-0.429607
1.18488e-07
-0.389891
-6.40851e-07
-0.353851
-1.02029e-06
-0.321135
-1.19433e-06
-0.29145
-6.73412e-07
-0.264507
6.65312e-07
-0.240058
3.17607e-06
-0.21786
7.3682e-06
-0.197716
1.37345e-05
-0.17943
2.26715e-05
-0.162828
3.43837e-05
-0.147757
4.86118e-05
-0.134074
6.43918e-05
-0.121648
8.00192e-05
-0.110368
9.32795e-05
-0.100132
0.000102035
-0.0908444
0.000104801
-0.0824215
0.000101325
-0.0747767
9.24374e-05
-0.0678529
7.96085e-05
-0.0615671
6.44378e-05
-0.0558715
4.83283e-05
-0.0507045
3.23275e-05
-0.0460134
1.71447e-05
-0.0417587
3.11416e-06
-0.0378976
-9.79434e-06
-0.0343928
-2.19326e-05
-0.0312121
-3.36701e-05
-0.028326
-4.50918e-05
-0.0257065
-5.54665e-05
-0.0233296
-6.40905e-05
-0.0211714
-7.07399e-05
-0.0192135
-7.81082e-05
-0.0174361
-8.26011e-05
-0.0158232
-0.000106283
-0.0143603
-8.83498e-05
-0.473354
7.01397e-08
-0.429607
-3.27804e-07
-0.38989
-1.13125e-06
-0.35385
-1.32703e-06
-0.321135
-1.39887e-06
-0.29145
-8.78331e-07
-0.264508
3.58765e-07
-0.240059
2.58427e-06
-0.217863
6.26922e-06
-0.19772
1.19479e-05
-0.179436
2.00862e-05
-0.162837
3.10249e-05
-0.147768
4.47552e-05
-0.134086
6.06107e-05
-0.12166
7.71586e-05
-0.11038
9.23058e-05
-0.100142
0.000103698
-0.0908518
0.000109484
-0.0824255
0.000108798
-0.0747774
0.000102079
-0.0678511
9.06142e-05
-0.0615635
7.60608e-05
-0.055867
5.99721e-05
-0.0506997
4.35796e-05
-0.0460088
2.77486e-05
-0.0417545
1.30075e-05
-0.037894
-4.65986e-07
-0.0343897
-1.28217e-05
-0.0312095
-2.44997e-05
-0.0283238
-3.58769e-05
-0.0257045
-4.70334e-05
-0.0233279
-5.71464e-05
-0.02117
-6.54682e-05
-0.0192124
-7.17992e-05
-0.0174352
-7.89833e-05
-0.0158227
-8.31024e-05
-0.0143589
-0.000107738
-0.0130313
-8.78918e-05
-0.473353
-3.09792e-08
-0.429606
-7.78948e-07
-0.389889
-1.61172e-06
-0.35385
-1.68358e-06
-0.321135
-1.62467e-06
-0.29145
-1.10664e-06
-0.264509
4.31708e-08
-0.240061
2.04324e-06
-0.217866
5.31348e-06
-0.197725
1.03826e-05
-0.179442
1.77573e-05
-0.162845
2.78691e-05
-0.147778
4.09106e-05
-0.134098
5.65278e-05
-0.121673
7.35832e-05
-0.110393
9.01995e-05
-0.100154
0.000104008
-0.0908609
0.000112759
-0.0824311
0.000115117
-0.0747796
0.000110933
-0.0678503
0.000101234
-0.0615605
8.76199e-05
-0.0558627
7.17887e-05
-0.0506949
5.5154e-05
-0.046004
3.87568e-05
-0.0417501
2.32707e-05
-0.0378901
9.05933e-06
-0.0343864
-3.82801e-06
-0.0312067
-1.5635e-05
-0.0283214
-2.68611e-05
-0.0257025
-3.79003e-05
-0.0233262
-4.88186e-05
-0.0211685
-5.86862e-05
-0.0192112
-6.6731e-05
-0.0174342
-7.27814e-05
-0.0158219
-7.97916e-05
-0.0143585
-8.35755e-05
-0.01303
-0.000109115
-0.0118254
-8.74567e-05
-0.473353
-1.94771e-07
-0.429605
-1.14617e-06
-0.389887
-1.97304e-06
-0.35385
-1.97578e-06
-0.321135
-1.80805e-06
-0.29145
-1.3134e-06
-0.264509
-2.67305e-07
-0.240063
1.53082e-06
-0.217868
4.45076e-06
-0.197728
8.99129e-06
-0.179447
1.56604e-05
-0.162852
2.49479e-05
-0.147787
3.71897e-05
-0.134109
5.23052e-05
-0.121686
6.94987e-05
-0.110407
8.71491e-05
-0.100167
0.000102997
-0.0908715
0.00011461
-0.0824385
0.000120093
-0.0747833
0.000118802
-0.0678506
0.000111275
-0.0615583
9.89867e-05
-0.0558588
8.36909e-05
-0.0506901
6.70047e-05
-0.045999
5.01523e-05
-0.0417453
3.39666e-05
-0.0378857
1.89482e-05
-0.0343826
5.31747e-06
-0.0312035
-6.97869e-06
-0.0283188
-1.82441e-05
-0.0257003
-2.90407e-05
-0.0233243
-3.97582e-05
-0.0211669
-5.04544e-05
-0.0192097
-6.01035e-05
-0.0174331
-6.78921e-05
-0.015821
-7.36669e-05
-0.0143578
-8.0509e-05
-0.0130296
-8.39675e-05
-0.0118242
-0.000110393
-0.0107314
-8.6986e-05
-0.473353
-3.42131e-07
-0.429604
-1.37008e-06
-0.389887
-2.16535e-06
-0.353849
-2.14173e-06
-0.321135
-1.90801e-06
-0.291451
-1.46323e-06
-0.26451
-5.46286e-07
-0.240064
1.04902e-06
-0.21787
3.6576e-06
-0.197731
7.73051e-06
-0.179452
1.37646e-05
-0.162858
2.22609e-05
-0.147796
3.36582e-05
-0.13412
4.8089e-05
-0.121699
6.50813e-05
-0.110421
8.33527e-05
-0.10018
0.000100818
-0.0908835
0.000115001
-0.0824475
0.00012365
-0.0747886
0.000125461
-0.0678523
0.000120532
-0.061557
0.000109978
-0.0558554
9.55644e-05
-0.0506855
7.90542e-05
-0.0459939
6.1896e-05
-0.0417402
4.50967e-05
-0.0378811
2.92936e-05
-0.0343785
1.48259e-05
-0.0312
1.79965e-06
-0.0283159
-9.90571e-06
-0.0256979
-2.06445e-05
-0.0233223
-3.1028e-05
-0.0211652
-4.14535e-05
-0.0192082
-5.19569e-05
-0.0174318
-6.14052e-05
-0.01582
-6.89559e-05
-0.014357
-7.44846e-05
-0.013029
-8.11656e-05
-0.0118239
-8.43391e-05
-0.0107303
-0.000111601
-0.00973859
-8.65401e-05
-0.473352
-4.19111e-07
-0.429603
-1.43459e-06
-0.389886
-2.18003e-06
-0.353849
-2.17114e-06
-0.321135
-1.9181e-06
-0.291451
-1.53779e-06
-0.264511
-7.68987e-07
-0.240065
6.16528e-07
-0.217872
2.93104e-06
-0.197734
6.58032e-06
-0.179456
1.20319e-05
-0.162864
1.9793e-05
-0.147804
3.03405e-05
-0.134131
4.39777e-05
-0.121712
6.05098e-05
-0.110435
7.8998e-05
-0.100195
9.76534e-05
-0.0908967
0.00011404
-0.0824582
0.000125688
-0.0747958
0.000130786
-0.0678557
0.000128765
-0.0615569
0.000120407
-0.0558527
0.000107259
-0.0506811
9.12183e-05
-0.0459887
7.39316e-05
-0.0417349
5.663e-05
-0.0378761
4.01008e-05
-0.034374
2.47931e-05
-0.0311961
1.09204e-05
-0.0283126
-1.49498e-06
-0.0256952
-1.26227e-05
-0.0233201
-2.28523e-05
-0.0211634
-3.28542e-05
-0.0192067
-4.30074e-05
-0.0174304
-5.33352e-05
-0.0158188
-6.26044e-05
-0.014356
-6.99312e-05
-0.0130283
-7.52161e-05
-0.0118233
-8.17486e-05
-0.01073
-8.46547e-05
-0.00973751
-0.000112716
-0.00883664
-8.52778e-05
-0.473352
-4.07059e-07
-0.429602
-1.35129e-06
-0.389885
-2.0702e-06
-0.353849
-2.08379e-06
-0.321135
-1.85747e-06
-0.291452
-1.54245e-06
-0.264512
-9.22379e-07
-0.240066
2.52812e-07
-0.217874
2.28277e-06
-0.197737
5.53643e-06
-0.17946
1.04502e-05
-0.16287
1.75173e-05
-0.147811
2.72478e-05
-0.13414
4.00291e-05
-0.121724
5.59134e-05
-0.110449
7.42814e-05
-0.100209
9.36769e-05
-0.0909109
0.000111865
-0.0824704
0.000126246
-0.0748047
0.000134614
-0.0678607
0.000135817
-0.0615581
0.000130026
-0.0558509
0.000118603
-0.0506772
0.000103366
-0.0459837
8.61852e-05
-0.0417295
6.85132e-05
-0.0378708
5.134e-05
-0.0343692
3.52378e-05
-0.0311918
2.05034e-05
-0.0283089
7.24831e-06
-0.0256922
-4.5597e-06
-0.0233176
-1.51225e-05
-0.0211613
-2.48681e-05
-0.019205
-3.451e-05
-0.017429
-4.44248e-05
-0.0158175
-5.46019e-05
-0.0143549
-6.37026e-05
-0.0130274
-7.08166e-05
-0.0118226
-7.58863e-05
-0.0107295
-8.22796e-05
-0.00973727
-8.49654e-05
-0.00883632
-0.000113079
-0.00801321
-8.01198e-05
-0.473352
-3.12756e-07
-0.429601
-1.16527e-06
-0.389884
-1.88833e-06
-0.35385
-1.93566e-06
-0.321135
-1.7505e-06
-0.291452
-1.49829e-06
-0.264512
-1.00897e-06
-0.240067
-2.97351e-08
-0.217875
1.72741e-06
-0.197739
4.60545e-06
-0.179464
9.01324e-06
-0.162875
1.54279e-05
-0.147818
2.43627e-05
-0.134149
3.62828e-05
-0.121735
5.1386e-05
-0.110462
6.93655e-05
-0.100224
8.90999e-05
-0.0909259
0.000108628
-0.082484
0.000125409
-0.0748154
0.000136914
-0.0678675
0.000141465
-0.061561
0.000138662
-0.0558502
0.000129367
-0.050674
0.000115363
-0.0459789
9.85642e-05
-0.041724
8.06967e-05
-0.0378652
6.2971e-05
-0.0343639
4.61335e-05
-0.0311872
3.05685e-05
-0.0283048
1.64447e-05
-0.0256887
3.81157e-06
-0.0233148
-7.40115e-06
-0.021159
-1.74248e-05
-0.0192032
-2.67128e-05
-0.0174275
-3.60315e-05
-0.0158162
-4.5726e-05
-0.0143538
-5.57622e-05
-0.0130264
-6.47089e-05
-0.0118218
-7.16243e-05
-0.0107289
-7.64867e-05
-0.00973679
-8.27574e-05
-0.00883599
-8.53489e-05
-0.00801755
-0.00010877
-0.00725238
-7.18117e-05
-0.473351
-1.6661e-07
-0.429601
-9.33992e-07
-0.389884
-1.6956e-06
-0.35385
-1.77145e-06
-0.321136
-1.63002e-06
-0.291452
-1.42726e-06
-0.264513
-1.0444e-06
-0.240068
-2.32642e-07
-0.217877
1.27237e-06
-0.197741
3.79733e-06
-0.179467
7.72593e-06
-0.162879
1.35207e-05
-0.147824
2.1693e-05
-0.134158
3.27395e-05
-0.121746
4.69998e-05
-0.110475
6.4374e-05
-0.100239
8.41014e-05
-0.0909413
0.000104528
-0.0824986
0.000123279
-0.0748277
0.000137705
-0.0678762
0.000145624
-0.0615656
0.000146062
-0.0558509
0.000139377
-0.0506716
0.000127001
-0.0459745
0.000110956
-0.0417186
9.31027e-05
-0.0378595
7.49462e-05
-0.0343584
5.74347e-05
-0.0311821
4.10852e-05
-0.0283004
2.61213e-05
-0.0256849
1.26315e-05
-0.0233116
6.15916e-07
-0.0211564
-1.00207e-05
-0.0192011
-1.95282e-05
-0.0174258
-2.83913e-05
-0.0158148
-3.74084e-05
-0.0143526
-4.69123e-05
-0.0130253
-5.68242e-05
-0.0118209
-6.56245e-05
-0.0107282
-7.23537e-05
-0.00973626
-7.70384e-05
-0.00883557
-8.31741e-05
-0.00801847
-8.44876e-05
-0.00726271
-9.84617e-05
-0.0065553
-6.27534e-05
-0.473352
-8.54469e-09
-0.4296
-6.9993e-07
-0.389883
-1.53836e-06
-0.35385
-1.62841e-06
-0.321136
-1.51272e-06
-0.291452
-1.35309e-06
-0.264513
-1.04592e-06
-0.240068
-3.68881e-07
-0.217878
9.14962e-07
-0.197743
3.11309e-06
-0.17947
6.59356e-06
-0.162883
1.1798e-05
-0.14783
1.92362e-05
-0.134165
2.94241e-05
-0.121756
4.27798e-05
-0.110487
5.94194e-05
-0.100253
7.88374e-05
-0.090957
9.97567e-05
-0.0825141
0.000120031
-0.0748414
0.000137021
-0.0678868
0.000148237
-0.061572
0.000152082
-0.0558532
0.000148362
-0.0506704
0.000138122
-0.0459707
0.000123195
-0.0417133
0.000105664
-0.0378536
8.72214e-05
-0.0343526
6.91083e-05
-0.0311767
5.2012e-05
-0.0282956
3.62485e-05
-0.0256807
2.19255e-05
-0.023308
9.06887e-06
-0.0211535
-2.34526e-06
-0.0191987
-1.24306e-05
-0.0174239
-2.14582e-05
-0.0158133
-2.99272e-05
-0.0143513
-3.86755e-05
-0.0130243
-4.79989e-05
-0.01182
-5.7791e-05
-0.0107273
-6.64595e-05
-0.0097356
-7.30239e-05
-0.00883507
-7.75537e-05
-0.00801861
-8.30391e-05
-0.00726889
-7.83612e-05
-0.00656766
-8.61284e-05
-0.00592039
-5.4015e-05
-0.473352
1.25701e-07
-0.4296
-5.15408e-07
-0.389883
-1.42919e-06
-0.35385
-1.52816e-06
-0.321136
-1.40901e-06
-0.291453
-1.28565e-06
-0.264513
-1.0335e-06
-0.240069
-4.56753e-07
-0.217879
6.41761e-07
-0.197745
2.54787e-06
-0.179472
5.61271e-06
-0.162887
1.02643e-05
-0.147835
1.69965e-05
-0.134173
2.63426e-05
-0.121765
3.87755e-05
-0.110499
5.45514e-05
-0.100267
7.34542e-05
-0.0909726
9.44844e-05
-0.0825302
0.000115843
-0.0748564
0.000134997
-0.067899
0.000149274
-0.0615804
0.000156611
-0.0558573
0.000156149
-0.0506705
0.000148462
-0.0459677
0.000135146
-0.0417083
0.00011824
-0.0378477
9.97453e-05
-0.0343465
8.11153e-05
-0.0311709
6.33081e-05
-0.0282903
4.67711e-05
-0.0256761
3.16572e-05
-0.0233041
1.7986e-05
-0.0211502
5.75774e-06
-0.019196
-5.07591e-06
-0.0174217
-1.4641e-05
-0.0158116
-2.3218e-05
-0.0143499
-3.13243e-05
-0.0130231
-3.98187e-05
-0.011819
-4.89867e-05
-0.0107265
-5.86719e-05
-0.00973485
-6.72204e-05
-0.00883448
-7.363e-05
-0.00801819
-7.79796e-05
-0.00727313
-7.87911e-05
-0.00657686
-6.91986e-05
-0.00593274
-7.3796e-05
-0.00534478
-4.60754e-05
-0.473352
2.13378e-07
-0.429599
-3.97087e-07
-0.389882
-1.3783e-06
-0.35385
-1.46605e-06
-0.321136
-1.32232e-06
-0.291453
-1.22827e-06
-0.264513
-1.01691e-06
-0.24007
-5.16141e-07
-0.21788
4.32663e-07
-0.197746
2.08736e-06
-0.179474
4.7762e-06
-0.16289
8.91134e-06
-0.14784
1.49784e-05
-0.134179
2.35041e-05
-0.121774
3.50089e-05
-0.11051
4.98549e-05
-0.100281
6.80329e-05
-0.0909881
8.88922e-05
-0.0825466
0.000110894
-0.0748723
0.000131777
-0.0679128
0.000148803
-0.0615907
0.000159544
-0.0558632
0.000162574
-0.0506722
0.000157827
-0.0459658
0.000146559
-0.0417039
0.000130735
-0.0378419
0.000112429
-0.0343402
9.34457e-05
-0.0311647
7.49591e-05
-0.0282847
5.76526e-05
-0.0256711
4.17672e-05
-0.0232998
2.7332e-05
-0.0211465
1.43148e-05
-0.0191929
2.69358e-06
-0.0174192
-7.58961e-06
-0.0158095
-1.66683e-05
-0.0143483
-2.48323e-05
-0.0130218
-3.26023e-05
-0.011818
-4.08688e-05
-0.0107256
-4.98869e-05
-0.00973406
-5.94719e-05
-0.00883379
-6.79178e-05
-0.00801764
-7.42017e-05
-0.00727493
-7.61941e-05
-0.00658566
-6.99916e-05
-0.00594247
-5.95121e-05
-0.00535614
-6.24493e-05
-0.00482437
-3.91508e-05
-0.473352
2.49288e-07
-0.429599
-3.38576e-07
-0.389881
-1.36592e-06
-0.35385
-1.43486e-06
-0.321137
-1.24734e-06
-0.291453
-1.17897e-06
-0.264514
-1.00089e-06
-0.24007
-5.60749e-07
-0.21788
2.6821e-07
-0.197748
1.70921e-06
-0.179476
4.07045e-06
-0.162893
7.73294e-06
-0.147844
1.31725e-05
-0.134185
2.09182e-05
-0.121782
3.14996e-05
-0.110521
4.53718e-05
-0.100294
6.26943e-05
-0.0910031
8.30843e-05
-0.0825631
0.000105383
-0.0748889
0.000127527
-0.067928
0.000146925
-0.0616027
0.000160886
-0.0558712
0.000167474
-0.0506756
0.000166028
-0.0459652
0.000157253
-0.0417003
0.000142932
-0.0378364
0.000125204
-0.0343338
0.000106031
-0.0311582
8.69607e-05
-0.0282786
6.88735e-05
-0.0256657
5.22038e-05
-0.023295
3.70276e-05
-0.0211424
2.32844e-05
-0.0191895
1.09032e-05
-0.0174163
-1.32882e-07
-0.0158072
-9.89805e-06
-0.0143465
-1.85255e-05
-0.0130204
-2.63025e-05
-0.0118168
-3.37618e-05
-0.0107246
-4.18093e-05
-0.00973326
-5.07032e-05
-0.00883307
-6.0204e-05
-0.008017
-6.85683e-05
-0.00727521
-7.39306e-05
-0.00659279
-6.90692e-05
-0.00595242
-6.00261e-05
-0.00536528
-5.04028e-05
-0.00483436
-5.24689e-05
-0.00435477
-3.32273e-05
-0.473353
2.25484e-07
-0.429598
-3.30912e-07
-0.38988
-1.36116e-06
-0.353849
-1.41433e-06
-0.321137
-1.18134e-06
-0.291453
-1.13153e-06
-0.264514
-9.84642e-07
-0.24007
-5.97738e-07
-0.217881
1.31906e-07
-0.197749
1.3961e-06
-0.179478
3.46949e-06
-0.162896
6.71628e-06
-0.147848
1.15738e-05
-0.13419
1.85743e-05
-0.121789
2.8267e-05
-0.11053
4.11414e-05
-0.100306
5.75099e-05
-0.0910176
7.72241e-05
-0.0825795
9.94343e-05
-0.074906
0.00012245
-0.0679442
0.000143765
-0.0616165
0.000160668
-0.0558811
0.000170781
-0.050681
0.000172848
-0.0459662
0.000167016
-0.0416977
0.000154657
-0.0378313
0.000137887
-0.0343274
0.000118847
-0.0311515
9.9292e-05
-0.0282721
8.0463e-05
-0.0256598
6.29633e-05
-0.0232898
4.70183e-05
-0.021138
3.2577e-05
-0.0191857
1.95163e-05
-0.0174132
7.75291e-06
-0.0158046
-2.73321e-06
-0.0143443
-1.2017e-05
-0.0130187
-2.02256e-05
-0.0118155
-2.76489e-05
-0.0107236
-3.48181e-05
-0.00973241
-4.2669e-05
-0.00883235
-5.14466e-05
-0.00801634
-6.08735e-05
-0.00727479
-6.90021e-05
-0.00659773
-6.90105e-05
-0.00596179
-5.97153e-05
-0.00537489
-5.0423e-05
-0.00484244
-4.23468e-05
-0.00436332
-4.39327e-05
-0.00393141
-2.8285e-05
-0.473353
1.78416e-07
-0.429598
-3.45392e-07
-0.389879
-1.35152e-06
-0.353849
-1.38291e-06
-0.321137
-1.11912e-06
-0.291453
-1.08195e-06
-0.264514
-9.6408e-07
-0.240071
-6.28953e-07
-0.217882
1.50208e-08
-0.19775
1.12922e-06
-0.17948
2.9596e-06
-0.162898
5.83209e-06
-0.147851
1.01733e-05
-0.134195
1.64722e-05
-0.121796
2.53018e-05
-0.110539
3.71969e-05
-0.100317