/*--------------------------------*- C++ -*----------------------------------*\
  =========                 |
  \\      /  F ield         | OpenFOAM: The Open Source CFD Toolbox
   \\    /   O peration     | Website:  https://openfoam.org
    \\  /    A nd           | Version:  dev
     \\/     M anipulation  |
\*---------------------------------------------------------------------------*/
FoamFile
{
    version     2.0;
    format      ascii;
    class       volVectorField;
    location    "425";
    object      U;
}
// * * * * * * * * * * * * * * * * * * * * * * * * * * * * * * * * * * * * * //

dimensions      [0 1 -1 0 0 0 0];

internalField   nonuniform List<vector> 
29380
(
(51.0622 0.00243721 0)
(51.0617 -0.00311129 0)
(51.0605 0.00157114 0)
(51.0598 -0.00571426 0)
(51.0595 -0.0018552 0)
(51.0642 -0.0024038 0)
(51.0584 -0.00649196 0)
(51.0626 -0.00362127 0)
(51.0642 -0.000691191 0)
(51.0718 -0.00276974 0)
(51.0576 -0.00527369 0)
(51.0655 -0.00391069 0)
(51.0681 0.000763401 0)
(51.0719 0.00157242 0)
(51.0753 -0.0028894 0)
(51.0577 -0.00242892 0)
(51.0681 -0.00269619 0)
(51.0715 0.00170136 0)
(51.0717 0.00405104 0)
(51.0757 -0.000770842 0)
(51.0768 -0.00133782 0)
(51.0585 0.00101933 0)
(51.0695 -0.000353892 0)
(51.0741 0.00198521 0)
(51.0714 0.00504643 0)
(51.0742 0.000623715 0)
(51.0766 0.00054614 0)
(51.0787 -0.00238223 0)
(51.0595 0.00393603 0)
(51.0694 0.00216422 0)
(51.0749 0.00149889 0)
(51.0711 0.00440026 0)
(51.0726 0.00156592 0)
(51.0758 0.0012526 0)
(51.0776 -0.00103016 0)
(51.0794 -0.0022676 0)
(51.0604 0.00544328 0)
(51.0683 0.00383556 0)
(51.0741 0.000442897 0)
(51.0709 0.00236266 0)
(51.0714 0.00188304 0)
(51.075 0.00161585 0)
(51.0765 -0.000312033 0)
(51.0781 -0.00108387 0)
(51.0801 -0.00317861 0)
(51.0607 0.00522797 0)
(51.0666 0.00398111 0)
(51.0722 -0.000810022 0)
(51.0709 -0.000187841 0)
(51.0708 0.00158016 0)
(51.0744 0.00151422 0)
(51.0755 0.000290216 0)
(51.0772 -0.000491508 0)
(51.0786 -0.00214877 0)
(51.0807 -0.00353862 0)
(51.0605 0.00360646 0)
(51.065 0.00256267 0)
(51.0703 -0.00185954 0)
(51.0712 -0.00222489 0)
(51.0711 0.000915831 0)
(51.074 0.00114279 0)
(51.0748 0.000637987 0)
(51.0763 7.58807e-05 0)
(51.0775 -0.00152021 0)
(51.079 -0.00259954 0)
(51.081 -0.00434536 0)
(51.0598 0.00133595 0)
(51.0639 0.000205508 0)
(51.0691 -0.00242222 0)
(51.0717 -0.00298057 0)
(51.0721 0.000234122 0)
(51.0741 0.000794057 0)
(51.0746 0.000822236 0)
(51.0757 0.000506833 0)
(51.0765 -0.000825084 0)
(51.0778 -0.00198625 0)
(51.0791 -0.00348875 0)
(51.0812 -0.004861 0)
(51.059 -0.000740925 0)
(51.0634 -0.00207388 0)
(51.069 -0.00242057 0)
(51.0724 -0.00225395 0)
(51.0734 -0.000154147 0)
(51.0745 0.000718195 0)
(51.0748 0.00101069 0)
(51.0754 0.0009044 0)
(51.0758 -0.000168442 0)
(51.0766 -0.00125723 0)
(51.0778 -0.00286544 0)
(51.0792 -0.00407823 0)
(51.0813 -0.00557906 0)
(51.0584 -0.00205034 0)
(51.0633 -0.00330016 0)
(51.0699 -0.00197549 0)
(51.0731 -0.000474134 0)
(51.0746 -8.8134e-05 0)
(51.0752 0.00105218 0)
(51.0753 0.00136522 0)
(51.0755 0.00140083 0)
(51.0754 0.000517965 0)
(51.0757 -0.000500628 0)
(51.0765 -0.00208167 0)
(51.0778 -0.00346569 0)
(51.0791 -0.00486289 0)
(51.0813 -0.00612827 0)
(51.0582 -0.00249306 0)
(51.0636 -0.00295061 0)
(51.0712 -0.00131664 0)
(51.0738 0.00152905 0)
(51.0755 0.000403201 0)
(51.076 0.00177461 0)
(51.0761 0.00198274 0)
(51.0758 0.00210533 0)
(51.0752 0.00132414 0)
(51.0751 0.000351556 0)
(51.0754 -0.00121359 0)
(51.0763 -0.00266742 0)
(51.0776 -0.00426087 0)
(51.079 -0.00548121 0)
(51.0812 -0.00676887 0)
(51.0585 -0.00240935 0)
(51.0639 -0.00115373 0)
(51.0723 -0.000662629 0)
(51.0745 0.0029096 0)
(51.0761 0.00113526 0)
(51.077 0.00272816 0)
(51.077 0.00285545 0)
(51.0764 0.00306385 0)
(51.0754 0.00232836 0)
(51.0748 0.00137749 0)
(51.0746 -0.000198378 0)
(51.0751 -0.0017457 0)
(51.076 -0.00345453 0)
(51.0774 -0.00490144 0)
(51.0788 -0.00618115 0)
(51.0811 -0.00731395 0)
(51.0589 -0.00234611 0)
(51.0642 0.00138795 0)
(51.0729 -0.000130331 0)
(51.075 0.00318939 0)
(51.0766 0.00186811 0)
(51.0779 0.00368712 0)
(51.0779 0.00387441 0)
(51.0771 0.00423528 0)
(51.0759 0.00356207 0)
(51.0747 0.00264041 0)
(51.074 0.00103243 0)
(51.074 -0.000636844 0)
(51.0746 -0.00249353 0)
(51.0756 -0.00410956 0)
(51.0771 -0.00562011 0)
(51.0786 -0.00678628 0)
(51.081 -0.00788138 0)
(51.0595 -0.00273778 0)
(51.0646 0.00371525 0)
(51.0729 0.000284497 0)
(51.0755 0.00244057 0)
(51.077 0.00240906 0)
(51.0789 0.00444366 0)
(51.0789 0.00487259 0)
(51.078 0.00550532 0)
(51.0765 0.00499224 0)
(51.075 0.0041597 0)
(51.0737 0.00253424 0)
(51.0732 0.000727415 0)
(51.0733 -0.00131336 0)
(51.074 -0.00313934 0)
(51.0752 -0.00485041 0)
(51.0767 -0.00624233 0)
(51.0783 -0.00741459 0)
(51.0809 -0.00836925 0)
(51.06 -0.00366964 0)
(51.0649 0.00500221 0)
(51.0725 0.000655731 0)
(51.0759 0.00121573 0)
(51.0776 0.00268659 0)
(51.0798 0.00487625 0)
(51.0798 0.00568609 0)
(51.0789 0.00672023 0)
(51.0773 0.00652229 0)
(51.0755 0.00589499 0)
(51.0737 0.00432181 0)
(51.0727 0.00240257 0)
(51.0723 0.000154464 0)
(51.0726 -0.00192563 0)
(51.0734 -0.00388639 0)
(51.0747 -0.00550611 0)
(51.0764 -0.0068827 0)
(51.0782 -0.00797783 0)
(51.0808 -0.00883693 0)
(51.0603 -0.00482539 0)
(51.0654 0.00486617 0)
(51.0719 0.00103817 0)
(51.0762 0.000248226 0)
(51.0783 0.00274734 0)
(51.0806 0.00497861 0)
(51.0808 0.00621133 0)
(51.08 0.0077385 0)
(51.0783 0.00802078 0)
(51.0762 0.00775102 0)
(51.074 0.00635585 0)
(51.0724 0.0044066 0)
(51.0714 0.00196715 0)
(51.0713 -0.000398043 0)
(51.0718 -0.00266241 0)
(51.0729 -0.00456635 0)
(51.0743 -0.00618621 0)
(51.0762 -0.00745744 0)
(51.078 -0.00853329 0)
(51.0806 -0.00923374 0)
(51.0604 -0.00564527 0)
(51.0661 0.00345803 0)
(51.0715 0.001396 0)
(51.0764 9.79604e-05 0)
(51.0791 0.00270427 0)
(51.0814 0.00483742 0)
(51.0817 0.0064325 0)
(51.0812 0.00847099 0)
(51.0795 0.00935591 0)
(51.0772 0.00959988 0)
(51.0746 0.00854708 0)
(51.0724 0.0067071 0)
(51.0709 0.00414844 0)
(51.0702 0.00150198 0)
(51.0703 -0.00110488 0)
(51.0711 -0.00335867 0)
(51.0723 -0.00528212 0)
(51.074 -0.00680938 0)
(51.076 -0.00802214 0)
(51.0778 -0.00902957 0)
(51.0804 -0.00960348 0)
(51.0604 -0.00560305 0)
(51.0667 0.00134131 0)
(51.0714 0.00159035 0)
(51.0766 0.0008841 0)
(51.0798 0.00264776 0)
(51.0821 0.00457813 0)
(51.0827 0.00641352 0)
(51.0824 0.00890414 0)
(51.0809 0.0104357 0)
(51.0784 0.0113152 0)
(51.0755 0.010775 0)
(51.0727 0.00922329 0)
(51.0706 0.0066771 0)
(51.0693 0.00380481 0)
(51.069 0.000846392 0)
(51.0693 -0.00180352 0)
(51.0703 -0.004109 0)
(51.0718 -0.00595078 0)
(51.0737 -0.00743065 0)
(51.0757 -0.00852348 0)
(51.0775 -0.00950898 0)
(51.0802 -0.00992275 0)
(51.0602 -0.00447998 0)
(51.0673 -0.000779243 0)
(51.0717 0.00143379 0)
(51.0767 0.00224955 0)
(51.0803 0.00258902 0)
(51.0827 0.00429944 0)
(51.0837 0.006257 0)
(51.0837 0.00909014 0)
(51.0823 0.0112271 0)
(51.0799 0.0128032 0)
(51.0766 0.0129184 0)
(51.0733 0.0118435 0)
(51.0705 0.00948758 0)
(51.0687 0.00650242 0)
(51.0678 0.00322744 0)
(51.0677 0.000161161 0)
(51.0684 -0.00257973 0)
(51.0697 -0.0048264 0)
(51.0714 -0.00662581 0)
(51.0734 -0.00799775 0)
(51.0754 -0.00899529 0)
(51.0773 -0.0099534 0)
(51.08 -0.010211 0)
(51.0601 -0.00249008 0)
(51.0676 -0.00232729 0)
(51.0723 0.000786095 0)
(51.0767 0.0035306 0)
(51.0805 0.00244545 0)
(51.0832 0.00403256 0)
(51.0846 0.00605417 0)
(51.0851 0.00911679 0)
(51.0839 0.0117573 0)
(51.0815 0.0140228 0)
(51.0781 0.0148831 0)
(51.0744 0.0144504 0)
(51.0709 0.0124826 0)
(51.0683 0.00954782 0)
(51.0668 0.00604267 0)
(51.0662 0.0025768 0)
(51.0665 -0.000630221 0)
(51.0675 -0.00334058 0)
(51.0691 -0.00556091 0)
(51.071 -0.00725491 0)
(51.0731 -0.0085376 0)
(51.0752 -0.00941672 0)
(51.0771 -0.0103813 0)
(51.0798 -0.0104528 0)
(51.06 -0.000222254 0)
(51.0676 -0.00303284 0)
(51.0728 -0.000355793 0)
(51.0767 0.00406644 0)
(51.0805 0.00209287 0)
(51.0837 0.0037363 0)
(51.0855 0.0058448 0)
(51.0864 0.00906386 0)
(51.0856 0.0120896 0)
(51.0834 0.0149844 0)
(51.0799 0.0166195 0)
(51.0758 0.0169474 0)
(51.0716 0.0155548 0)
(51.0683 0.0128642 0)
(51.0661 0.00926475 0)
(51.0649 0.00545865 0)
(51.0648 0.00178493 0)
(51.0654 -0.00142955 0)
(51.0667 -0.00413058 0)
(51.0686 -0.00625992 0)
(51.0706 -0.00785908 0)
(51.0728 -0.00902664 0)
(51.0749 -0.0098066 0)
(51.0769 -0.0107782 0)
(51.0796 -0.0106611 0)
(51.0599 0.00158147 0)
(51.0674 -0.00294558 0)
(51.0732 -0.0018232 0)
(51.0768 0.00347948 0)
(51.0804 0.00143684 0)
(51.0841 0.00333269 0)
(51.0864 0.0056082 0)
(51.0877 0.00897061 0)
(51.0873 0.0122908 0)
(51.0854 0.0157313 0)
(51.0819 0.0181215 0)
(51.0775 0.0192738 0)
(51.0728 0.0186085 0)
(51.0687 0.0163605 0)
(51.0656 0.0128397 0)
(51.0638 0.00879678 0)
(51.0631 0.00468954 0)
(51.0634 0.000953966 0)
(51.0644 -0.00227317 0)
(51.0661 -0.00489493 0)
(51.0681 -0.00694072 0)
(51.0703 -0.00841067 0)
(51.0725 -0.00948454 0)
(51.0747 -0.0101513 0)
(51.0767 -0.0111584 0)
(51.0795 -0.0108278 0)
(51.0599 0.00230868 0)
(51.067 -0.00233365 0)
(51.0734 -0.0033109 0)
(51.0769 0.00182587 0)
(51.0803 0.000484153 0)
(51.0846 0.00275825 0)
(51.0873 0.005283 0)
(51.089 0.0088229 0)
(51.089 0.0123993 0)
(51.0874 0.0163105 0)
(51.0842 0.0194099 0)
(51.0797 0.021405 0)
(51.0745 0.021574 0)
(51.0696 0.0199487 0)
(51.0656 0.0166985 0)
(51.0629 0.0125599 0)
(51.0616 0.00808926 0)
(51.0614 0.00383992 0)
(51.0621 5.70941e-05 0)
(51.0635 -0.00310289 0)
(51.0655 -0.00564989 0)
(51.0677 -0.00757243 0)
(51.07 -0.00892952 0)
(51.0723 -0.00989969 0)
(51.0744 -0.0104658 0)
(51.0765 -0.0115153 0)
(51.0793 -0.0109626 0)
(51.0598 0.00169879 0)
(51.0666 -0.00151703 0)
(51.0734 -0.00447048 0)
(51.077 -0.000451122 0)
(51.0803 -0.000642382 0)
(51.085 0.00200999 0)
(51.0881 0.00480835 0)
(51.0902 0.00856851 0)
(51.0907 0.0124115 0)
(51.0896 0.0167472 0)
(51.0866 0.0205082 0)
(51.0821 0.0233391 0)
(51.0766 0.0244091 0)
(51.0709 0.023556 0)
(51.066 0.0207689 0)
(51.0624 0.0167025 0)
(51.0603 0.0119734 0)
(51.0595 0.00724707 0)
(51.0598 0.00289226 0)
(51.061 -0.000843104 0)
(51.0628 -0.00393409 0)
(51.0649 -0.00636195 0)
(51.0673 -0.00817283 0)
(51.0697 -0.00940504 0)
(51.072 -0.0102858 0)
(51.0742 -0.0107441 0)
(51.0763 -0.0118567 0)
(51.0791 -0.011063 0)
(51.0598 -8.19091e-05 0)
(51.0662 -0.000735045 0)
(51.0733 -0.00502621 0)
(51.0771 -0.0027032 0)
(51.0805 -0.00173384 0)
(51.0855 0.00115777 0)
(51.0888 0.00416188 0)
(51.0913 0.0081486 0)
(51.0923 0.0122883 0)
(51.0917 0.0170321 0)
(51.0891 0.0214208 0)
(51.0848 0.0250758 0)
(51.0791 0.0270889 0)
(51.0728 0.0271277 0)
(51.067 0.0249851 0)
(51.0623 0.0211741 0)
(51.0592 0.0163209 0)
(51.0577 0.0111846 0)
(51.0575 0.00626168 0)
(51.0584 0.00191448 0)
(51.06 -0.00175913 0)
(51.0621 -0.0047314 0)
(51.0644 -0.00704515 0)
(51.0669 -0.00873134 0)
(51.0694 -0.0098496 0)
(51.0719 -0.0106369 0)
(51.074 -0.0109954 0)
(51.0761 -0.0121775 0)
(51.0788 -0.0111378 0)
(51.0597 -0.00250528 0)
(51.0661 -7.89645e-05 0)
(51.0731 -0.00486184 0)
(51.0772 -0.00433119 0)
(51.0807 -0.00257319 0)
(51.0859 0.000324428 0)
(51.0895 0.00337973 0)
(51.0924 0.00753392 0)
(51.0938 0.0119803 0)
(51.0938 0.0171281 0)
(51.0918 0.0221245 0)
(51.0878 0.0265989 0)
(51.082 0.0295892 0)
(51.0752 0.0306189 0)
(51.0685 0.029289 0)
(51.0628 0.0259247 0)
(51.0586 0.021105 0)
(51.0562 0.0156549 0)
(51.0553 0.0101923 0)
(51.0558 0.00520617 0)
(51.0571 0.000900175 0)
(51.0591 -0.00265285 0)
(51.0614 -0.00550277 0)
(51.0639 -0.00768652 0)
(51.0666 -0.00925806 0)
(51.0692 -0.0102567 0)
(51.0717 -0.0109612 0)
(51.0738 -0.0112146 0)
(51.0759 -0.0124837 0)
(51.0786 -0.0111862 0)
(51.0597 -0.00488659 0)
(51.066 0.000480368 0)
(51.0728 -0.00405043 0)
(51.0773 -0.00497949 0)
(51.081 -0.00301222 0)
(51.0863 -0.000362487 0)
(51.0902 0.00254719 0)
(51.0934 0.00674558 0)
(51.0953 0.0114574 0)
(51.0958 0.0169915 0)
(51.0944 0.0225767 0)
(51.0908 0.0278701 0)
(51.0852 0.0318724 0)
(51.0781 0.0339837 0)
(51.0706 0.0336245 0)
(51.0638 0.0309045 0)
(51.0585 0.0262977 0)
(51.0549 0.0206566 0)
(51.0532 0.0147094 0)
(51.0531 0.00907501 0)
(51.0542 0.00408452 0)
(51.056 -0.000106988 0)
(51.0583 -0.00352488 0)
(51.0608 -0.00623117 0)
(51.0635 -0.00829452 0)
(51.0663 -0.00974574 0)
(51.069 -0.0106341 0)
(51.0715 -0.0112533 0)
(51.0736 -0.0114097 0)
(51.0757 -0.0127728 0)
(51.0783 -0.0112156 0)
(51.0598 -0.00660252 0)
(51.0662 0.00102883 0)
(51.0727 -0.00283069 0)
(51.0774 -0.00462852 0)
(51.0813 -0.0030264 0)
(51.0867 -0.000819696 0)
(51.0907 0.00176823 0)
(51.0943 0.00585464 0)
(51.0967 0.0107317 0)
(51.0978 0.0165983 0)
(51.097 0.0227346 0)
(51.094 0.0288368 0)
(51.0886 0.0338823 0)
(51.0815 0.0371624 0)
(51.0734 0.0379275 0)
(51.0655 0.0360577 0)
(51.0589 0.0318664 0)
(51.0541 0.026186 0)
(51.0514 0.0198366 0)
(51.0505 0.0135686 0)
(51.0511 0.00784994 0)
(51.0527 0.00294859 0)
(51.055 -0.00110077 0)
(51.0576 -0.00435268 0)
(51.0603 -0.00692312 0)
(51.0631 -0.00886084 0)
(51.066 -0.0102014 0)
(51.0688 -0.0109764 0)
(51.0713 -0.0115201 0)
(51.0733 -0.0115791 0)
(51.0754 -0.0130486 0)
(51.078 -0.0112265 0)
(51.0598 -0.00726332 0)
(51.0664 0.00161458 0)
(51.0726 -0.00152518 0)
(51.0774 -0.00356182 0)
(51.0816 -0.00271669 0)
(51.087 -0.00104092 0)
(51.0912 0.00112524 0)
(51.0951 0.00495907 0)
(51.098 0.00986018 0)
(51.0996 0.0159625 0)
(51.0995 0.0225784 0)
(51.0971 0.0294506 0)
(51.0923 0.0355523 0)
(51.0852 0.040079 0)
(51.0767 0.0421174 0)
(51.0679 0.0413125 0)
(51.06 0.0377666 0)
(51.0539 0.0322334 0)
(51.0499 0.0255956 0)
(51.0481 0.0187351 0)
(51.048 0.0122633 0)
(51.0493 0.00657956 0)
(51.0515 0.00181137 0)
(51.0541 -0.00205165 0)
(51.0569 -0.00514034 0)
(51.0598 -0.0075696 0)
(51.0628 -0.00939248 0)
(51.0658 -0.0106199 0)
(51.0686 -0.01129 0)
(51.071 -0.0117602 0)
(51.073 -0.0117294 0)
(51.0751 -0.0133096 0)
(51.0778 -0.0112248 0)
(51.0599 -0.00681124 0)
(51.0667 0.00220164 0)
(51.0725 -0.000456023 0)
(51.0774 -0.00224044 0)
(51.0817 -0.00227556 0)
(51.0872 -0.00109616 0)
(51.0916 0.000650462 0)
(51.0959 0.00414975 0)
(51.0991 0.00893031 0)
(51.1014 0.0151397 0)
(51.1019 0.0221261 0)
(51.1003 0.0296878 0)
(51.0961 0.0368211 0)
(51.0893 0.0426477 0)
(51.0805 0.0460952 0)
(51.0709 0.0465737 0)
(51.0618 0.0439307 0)
(51.0542 0.0387735 0)
(51.0489 0.0320016 0)
(51.0459 0.024621 0)
(51.045 0.0173943 0)
(51.0458 0.0108677 0)
(51.0478 0.0052837 0)
(51.0504 0.000709406 0)
(51.0533 -0.0029608 0)
(51.0563 -0.00587783 0)
(51.0594 -0.00817743 0)
(51.0625 -0.00988447 0)
(51.0655 -0.0110066 0)
(51.0683 -0.0115736 0)
(51.0708 -0.0119796 0)
(51.0727 -0.0118596 0)
(51.0748 -0.0135591 0)
(51.0775 -0.01121 0)
(51.06 -0.00547921 0)
(51.0669 0.00266691 0)
(51.0724 0.000127525 0)
(51.0773 -0.00113972 0)
(51.0818 -0.00191674 0)
(51.0873 -0.00110588 0)
(51.092 0.000317351 0)
(51.0965 0.00347973 0)
(51.1002 0.00803089 0)
(51.103 0.0142129 0)
(51.1042 0.0214347 0)
(51.1034 0.0295631 0)
(51.0999 0.0376527 0)
(51.0936 0.0447875 0)
(51.0849 0.0497507 0)
(51.0747 0.0517217 0)
(51.0644 0.0502604 0)
(51.0553 0.0457544 0)
(51.0485 0.0390536 0)
(51.0441 0.0312654 0)
(51.0422 0.0233112 0)
(51.0423 0.0158999 0)
(51.0439 0.00941013 0)
(51.0464 0.00400622 0)
(51.0494 -0.000353339 0)
(51.0526 -0.00381556 0)
(51.0558 -0.00657126 0)
(51.059 -0.00874223 0)
(51.0622 -0.0103419 0)
(51.0653 -0.0113594 0)
(51.068 -0.0118333 0)
(51.0705 -0.0121769 0)
(51.0723 -0.0119754 0)
(51.0746 -0.0137958 0)
(51.0773 -0.0111853 0)
(51.0601 -0.00367682 0)
(51.067 0.00284007 0)
(51.0722 0.000105873 0)
(51.0772 -0.000618648 0)
(51.0818 -0.00181045 0)
(51.0874 -0.00119468 0)
(51.0923 5.52945e-05 0)
(51.0971 0.00294998 0)
(51.1012 0.00722376 0)
(51.1045 0.0132676 0)
(51.1064 0.0205861 0)
(51.1064 0.0291293 0)
(51.1037 0.0380488 0)
(51.0981 0.0464413 0)
(51.0896 0.0529775 0)
(51.0791 0.056621 0)
(51.0678 0.0566246 0)
(51.0573 0.0530872 0)
(51.0487 0.0467231 0)
(51.0428 0.0386925 0)
(51.0396 0.0300759 0)
(51.0387 0.0217626 0)
(51.0398 0.0142913 0)
(51.0422 0.00794254 0)
(51.0452 0.00275871 0)
(51.0486 -0.00136021 0)
(51.0519 -0.00462086 0)
(51.0553 -0.00721668 0)
(51.0586 -0.0092688 0)
(51.0619 -0.0107617 0)
(51.065 -0.0116844 0)
(51.0678 -0.0120677 0)
(51.0702 -0.0123572 0)
(51.0721 -0.0120768 0)
(51.0744 -0.0140203 0)
(51.0772 -0.0111502 0)
(51.0602 -0.00187816 0)
(51.067 0.00258267 0)
(51.0721 -0.000510402 0)
(51.0771 -0.000821482 0)
(51.0817 -0.00203821 0)
(51.0875 -0.00144876 0)
(51.0925 -0.000219948 0)
(51.0976 0.00251395 0)
(51.1021 0.00652698 0)
(51.1059 0.0123667 0)
(51.1085 0.0196642 0)
(51.1093 0.0284648 0)
(51.1075 0.0380505 0)
(51.1027 0.0475887 0)
(51.0947 0.0556912 0)
(51.0841 0.0611354 0)
(51.072 0.0628683 0)
(51.06 0.0606427 0)
(51.0498 0.0549423 0)
(51.0421 0.0469007 0)
(51.0373 0.0377374 0)
(51.0353 0.0285373 0)
(51.0357 0.0200287 0)
(51.0376 0.0126311 0)
(51.0407 0.00648709 0)
(51.0442 0.00156401 0)
(51.0478 -0.00231299 0)
(51.0514 -0.00537187 0)
(51.0548 -0.00781864 0)
(51.0582 -0.0097532 0)
(51.0616 -0.0111494 0)
(51.0647 -0.0119803 0)
(51.0675 -0.0122823 0)
(51.07 -0.0125204 0)
(51.0718 -0.0121672 0)
(51.0743 -0.0142305 0)
(51.077 -0.0111095 0)
(51.0602 -0.000450523 0)
(51.067 0.00185813 0)
(51.0719 -0.00159835 0)
(51.077 -0.00167581 0)
(51.0817 -0.00257586 0)
(51.0876 -0.00189057 0)
(51.0927 -0.000573536 0)
(51.098 0.00210119 0)
(51.1028 0.00591372 0)
(51.1071 0.0115347 0)
(51.1104 0.0187322 0)
(51.112 0.0276524 0)
(51.1112 0.0377279 0)
(51.1073 0.0482502 0)
(51.1 0.0578438 0)
(51.0895 0.0651482 0)
(51.0769 0.0688283 0)
(51.0638 0.0682587 0)
(51.0517 0.0635988 0)
(51.0421 0.0558512 0)
(51.0356 0.0463232 0)
(51.0322 0.0362973 0)
(51.0315 0.0267207 0)
(51.0329 0.0181859 0)
(51.0357 0.0109542 0)
(51.0393 0.00507509 0)
(51.0432 0.000425431 0)
(51.0471 -0.00320498 0)
(51.0508 -0.00607315 0)
(51.0544 -0.00837291 0)
(51.0579 -0.0102007 0)
(51.0612 -0.0115039 0)
(51.0644 -0.012252 0)
(51.0672 -0.0124771 0)
(51.0698 -0.0126702 0)
(51.0717 -0.0122451 0)
(51.0742 -0.0144282 0)
(51.077 -0.0110636 0)
(51.0602 0.0004022 0)
(51.0669 0.000751628 0)
(51.0718 -0.00294196 0)
(51.0769 -0.00294751 0)
(51.0816 -0.00331543 0)
(51.0876 -0.00247513 0)
(51.0929 -0.00103076 0)
(51.0984 0.00164633 0)
(51.1035 0.00533005 0)
(51.1083 0.0107571 0)
(51.1121 0.0178193 0)
(51.1145 0.0267585 0)
(51.1147 0.0371611 0)
(51.1119 0.0484803 0)
(51.1054 0.0594288 0)
(51.0954 0.0685768 0)
(51.0826 0.0743538 0)
(51.0684 0.0757535 0)
(51.0547 0.0725381 0)
(51.043 0.0654605 0)
(51.0345 0.0558295 0)
(51.0294 0.0451003 0)
(51.0275 0.0344608 0)
(51.0281 0.0247188 0)
(51.0305 0.0162844 0)
(51.0341 0.0093033 0)
(51.0381 0.0037172 0)
(51.0424 -0.000646928 0)
(51.0465 -0.00403989 0)
(51.0503 -0.00672018 0)
(51.054 -0.00888422 0)
(51.0575 -0.0106101 0)
(51.0609 -0.0118303 0)
(51.0641 -0.0124999 0)
(51.067 -0.0126565 0)
(51.0696 -0.012805 0)
(51.0716 -0.0123133 0)
(51.0742 -0.0146124 0)
(51.077 -0.0110174 0)
(51.0602 0.000640328 0)
(51.0668 -0.000518871 0)
(51.0716 -0.0043067 0)
(51.0768 -0.00431393 0)
(51.0816 -0.00411297 0)
(51.0877 -0.00311078 0)
(51.0931 -0.00157093 0)
(51.0987 0.00111263 0)
(51.1041 0.00471966 0)
(51.1093 0.00999416 0)
(51.1137 0.0169204 0)
(51.1169 0.0258206 0)
(51.118 0.036421 0)
(51.1163 0.0483517 0)
(51.1109 0.0604789 0)
(51.1016 0.0713811 0)
(51.0889 0.0793233 0)
(51.0739 0.082947 0)
(51.0587 0.0815748 0)
(51.045 0.0755989 0)
(51.0343 0.0662105 0)
(51.0272 0.0549797 0)
(51.0237 0.043334 0)
(51.0232 0.0323394 0)
(51.0251 0.0225994 0)
(51.0284 0.0143803 0)
(51.0326 0.0076983 0)
(51.0371 0.00242867 0)
(51.0416 -0.00165497 0)
(51.0459 -0.00481327 0)
(51.0499 -0.00731753 0)
(51.0536 -0.0093517 0)
(51.0571 -0.010987 0)
(51.0605 -0.0121288 0)
(51.0638 -0.0127288 0)
(51.0668 -0.0128197 0)
(51.0696 -0.0129273 0)
(51.0715 -0.0123705 0)
(51.0743 -0.0147869 0)
(51.0773 -0.0109685 0)
(51.0601 0.000427508 0)
(51.0666 -0.00169027 0)
(51.0715 -0.00546828 0)
(51.0768 -0.00548783 0)
(51.0816 -0.00482771 0)
(51.0878 -0.0036977 0)
(51.0933 -0.0021407 0)
(51.099 0.000503739 0)
(51.1046 0.00404685 0)
(51.1102 0.00920353 0)
(51.1151 0.0160086 0)
(51.119 0.0248455 0)
(51.1211 0.0355557 0)
(51.1206 0.047937 0)
(51.1163 0.0610512 0)
(51.108 0.0735625 0)
(51.0956 0.0836549 0)
(51.0803 0.0896788 0)
(51.0637 0.0905112 0)
(51.048 0.0860961 0)
(51.035 0.0773737 0)
(51.0257 0.0659321 0)
(51.0203 0.0534087 0)
(51.0184 0.0411546 0)
(51.0194 0.0300203 0)
(51.0224 0.0204346 0)
(51.0265 0.0125056 0)
(51.0313 0.00616196 0)
(51.0362 0.00121083 0)
(51.0409 -0.00259387 0)
(51.0454 -0.00552918 0)
(51.0494 -0.00786398 0)
(51.0532 -0.0097809 0)
(51.0567 -0.0113313 0)
(51.0602 -0.0124045 0)
(51.0636 -0.0129384 0)
(51.0667 -0.0129693 0)
(51.0696 -0.0130356 0)
(51.0716 -0.0124213 0)
(51.0746 -0.0149489 0)
(51.0778 -0.0109405 0)
(51.0601 -1.73045e-05 0)
(51.0665 -0.00251481 0)
(51.0714 -0.00625139 0)
(51.0768 -0.0062907 0)
(51.0816 -0.00537124 0)
(51.0878 -0.00415757 0)
(51.0934 -0.00267791 0)
(51.0993 -0.00014261 0)
(51.1051 0.0033104 0)
(51.111 0.00835883 0)
(51.1164 0.0150544 0)
(51.121 0.0238205 0)
(51.1241 0.0345872 0)
(51.1246 0.0472948 0)
(51.1216 0.0612121 0)
(51.1144 0.0751533 0)
(51.1028 0.087309 0)
(51.0874 0.0958206 0)
(51.0698 0.0991546 0)
(51.0523 0.0967541 0)
(51.0368 0.089179 0)
(51.025 0.0779099 0)
(51.0174 0.0647247 0)
(51.0139 0.0512625 0)
(51.0137 0.0386695 0)
(51.0161 0.0275939 0)
(51.02 0.0182712 0)
(51.0249 0.0106927 0)
(51.0301 0.00470029 0)
(51.0353 6.98455e-05 0)
(51.0403 -0.00346702 0)
(51.0449 -0.00618607 0)
(51.049 -0.0083654 0)
(51.0527 -0.0101721 0)
(51.0564 -0.0116483 0)
(51.06 -0.0126575 0)
(51.0636 -0.0131316 0)
(51.0668 -0.013104 0)
(51.0697 -0.0131336 0)
(51.0718 -0.0124618 0)
(51.0752 -0.0151036 0)
(51.0704 -0.0109486 0)
(51.06 -0.000465639 0)
(51.0664 -0.00281712 0)
(51.0713 -0.0066054 0)
(51.0768 -0.0066636 0)
(51.0817 -0.00571774 0)
(51.0879 -0.00446102 0)
(51.0935 -0.00313299 0)
(51.0995 -0.000772826 0)
(51.1055 0.00254143 0)
(51.1117 0.00746264 0)
(51.1176 0.0140419 0)
(51.1228 0.0227291 0)
(51.1267 0.0335184 0)
(51.1284 0.0464624 0)
(51.1268 0.0610224 0)
(51.1209 0.0762026 0)
(51.1102 0.0902807 0)
(51.0951 0.101284 0)
(51.0769 0.107332 0)
(51.0577 0.107363 0)
(51.0399 0.101447 0)
(51.0254 0.090814 0)
(51.0152 0.0772823 0)
(51.0096 0.062742 0)
(51.008 0.0486687 0)
(51.0095 0.0359909 0)
(51.0131 0.0251257 0)
(51.0179 0.0161542 0)
(51.0234 0.00895484 0)
(51.0291 0.00332277 0)
(51.0346 -0.000996476 0)
(51.0397 -0.00427219 0)
(51.0444 -0.00678963 0)
(51.0485 -0.00882195 0)
(51.0524 -0.0105309 0)
(51.0561 -0.0119388 0)
(51.0599 -0.0128911 0)
(51.0636 -0.0133072 0)
(51.0669 -0.0132267 0)
(51.07 -0.0132175 0)
(51.0723 -0.012499 0)
(51.0774 -0.0152463 0)
(51.0049 -0.0106708 0)
(51.06 -0.000721255 0)
(51.0663 -0.00256134 0)
(51.0713 -0.00654881 0)
(51.0768 -0.00672422 0)
(51.0817 -0.00588589 0)
(51.088 -0.00462965 0)
(51.0936 -0.00348621 0)
(51.0997 -0.0013367 0)
(51.1059 0.00178876 0)
(51.1123 0.0065441 0)
(51.1186 0.0129792 0)
(51.1245 0.021565 0)
(51.1292 0.0323461 0)
(51.132 0.0454596 0)
(51.1317 0.0605292 0)
(51.1272 0.0767635 0)
(51.1178 0.0925895 0)
(51.1034 0.106015 0)
(51.0849 0.114903 0)
(51.0644 0.117714 0)
(51.0443 0.113967 0)
(51.027 0.104498 0)
(51.014 0.0910333 0)
(51.006 0.075642 0)
(51.0025 0.0601307 0)
(51.0028 0.0457643 0)
(51.0058 0.0332064 0)
(51.0105 0.0226767 0)
(51.0161 0.0141071 0)
(51.0221 0.00730675 0)
(51.0282 0.00202899 0)
(51.0339 -0.00198485 0)
(51.0392 -0.00501448 0)
(51.0439 -0.00733993 0)
(51.0481 -0.0092397 0)
(51.0521 -0.0108585 0)
(51.056 -0.0122063 0)
(51.0599 -0.0131044 0)
(51.0637 -0.0134684 0)
(51.0672 -0.0133352 0)
(51.0705 -0.0132958 0)
(51.0729 -0.0125387 0)
(51.0622 -0.0151771 0)
(50.8475 -0.00976123 0)
(51.06 -0.000735311 0)
(51.0662 -0.00182167 0)
(51.0712 -0.00620347 0)
(51.0768 -0.00665079 0)
(51.0818 -0.00593915 0)
(51.088 -0.0047122 0)
(51.0937 -0.00375014 0)
(51.0999 -0.00180655 0)
(51.1062 0.0011021 0)
(51.1129 0.00564724 0)
(51.1195 0.0118963 0)
(51.126 0.0203411 0)
(51.1315 0.031073 0)
(51.1353 0.0442971 0)
(51.1363 0.0597656 0)
(51.1333 0.0768841 0)
(51.1253 0.0942683 0)
(51.1119 0.109992 0)
(51.0937 0.121756 0)
(51.0723 0.127616 0)
(51.0502 0.126513 0)
(51.03 0.118773 0)
(51.014 0.105879 0)
(51.0031 0.0899692 0)
(50.9973 0.0731489 0)
(50.9961 0.0570536 0)
(50.9982 0.0426628 0)
(51.0025 0.0303976 0)
(51.0082 0.0202843 0)
(51.0145 0.0121523 0)
(51.021 0.00575125 0)
(51.0273 0.000824096 0)
(51.0333 -0.00289959 0)
(51.0387 -0.00569379 0)
(51.0435 -0.00784345 0)
(51.0478 -0.00962004 0)
(51.0519 -0.0111588 0)
(51.0559 -0.0124505 0)
(51.06 -0.0133007 0)
(51.064 -0.0136128 0)
(51.0677 -0.0134365 0)
(51.0714 -0.01336 0)
(51.0673 -0.0126001 0)
(50.9549 -0.0142178 0)
(50.6335 -0.00862367 0)
(51.06 -0.000493379 0)
(51.0662 -0.000740399 0)
(51.0711 -0.00575525 0)
(51.0768 -0.00663818 0)
(51.0818 -0.00593964 0)
(51.0881 -0.00477082 0)
(51.0938 -0.00395647 0)
(51.1001 -0.002183 0)
(51.1065 0.000512176 0)
(51.1134 0.00481627 0)
(51.1204 0.0108342 0)
(51.1273 0.0190881 0)
(51.1336 0.0297164 0)
(51.1384 0.0429872 0)
(51.1407 0.0587564 0)
(51.1392 0.076605 0)
(51.1328 0.095355 0)
(51.1207 0.113212 0)
(51.1031 0.127816 0)
(51.0812 0.136901 0)
(51.0574 0.138857 0)
(51.0346 0.133415 0)
(51.0153 0.121669 0)
(51.0011 0.105682 0)
(50.9927 0.087785 0)
(50.9894 0.0699913 0)
(50.9903 0.0536539 0)
(50.9941 0.0394707 0)
(50.9996 0.0276199 0)
(51.0062 0.0179819 0)
(51.0131 0.0102978 0)
(51.02 0.00429595 0)
(51.0266 -0.000295429 0)
(51.0327 -0.00374016 0)
(51.0383 -0.00631672 0)
(51.0432 -0.008302 0)
(51.0476 -0.009968 0)
(51.0518 -0.0114324 0)
(51.0561 -0.0126745 0)
(51.0603 -0.0134781 0)
(51.0645 -0.0137488 0)
(51.0684 -0.0135239 0)
(51.0721 -0.013426 0)
(50.9991 -0.0122067 0)
(50.764 -0.0125915 0)
(50.3876 -0.00749318 0)
(51.06 -9.99444e-05 0)
(51.0661 0.000422514 0)
(51.071 -0.00534079 0)
(51.0768 -0.00685467 0)
(51.0819 -0.00593771 0)
(51.0881 -0.00485157 0)
(51.0939 -0.00414506 0)
(51.1002 -0.00248806 0)
(51.1068 2.32965e-05 0)
(51.1138 0.00407906 0)
(51.1211 0.00983345 0)
(51.1285 0.0178455 0)
(51.1355 0.0283076 0)
(51.1412 0.0415521 0)
(51.1448 0.0575261 0)
(51.1448 0.0759624 0)
(51.1401 0.0958892 0)
(51.1295 0.11569 0)
(51.1129 0.133033 0)
(51.091 0.145429 0)
(51.066 0.150781 0)
(51.0407 0.148183 0)
(51.0181 0.138207 0)
(51.0005 0.122686 0)
(50.9888 0.104059 0)
(50.9831 0.0846886 0)
(50.9823 0.0663427 0)
(50.9852 0.0500672 0)
(50.9905 0.0362667 0)
(50.9971 0.0249214 0)
(51.0044 0.015785 0)
(51.0118 0.00855471 0)
(51.0191 0.00293876 0)
(51.0259 -0.00132819 0)
(51.0322 -0.00451311 0)
(51.0379 -0.00688546 0)
(51.0429 -0.00872157 0)
(51.0476 -0.0102844 0)
(51.052 -0.0116827 0)
(51.0563 -0.012877 0)
(51.0608 -0.0136442 0)
(51.0653 -0.0138682 0)
(51.0697 -0.0136222 0)
(51.0402 -0.0132116 0)
(50.8302 -0.0109552 0)
(50.5272 -0.0109056 0)
(50.127 -0.00643279 0)
(51.0601 0.000289707 0)
(51.066 0.00144653 0)
(51.0709 -0.00517115 0)
(51.0768 -0.00734116 0)
(51.0819 -0.00597528 0)
(51.0881 -0.00497265 0)
(51.0939 -0.00434593 0)
(51.1003 -0.00275719 0)
(51.107 -0.0003828 0)
(51.1142 0.00344033 0)
(51.1218 0.00891943 0)
(51.1296 0.0166517 0)
(51.1372 0.0268863 0)
(51.1438 0.0400257 0)
(51.1485 0.0561058 0)
(51.1501 0.0749936 0)
(51.1471 0.0959127 0)
(51.1383 0.117453 0)
(51.123 0.137382 0)
(51.1016 0.153091 0)
(51.0758 0.162083 0)
(51.0484 0.162826 0)
(51.0226 0.155261 0)
(51.0013 0.140832 0)
(50.986 0.121942 0)
(50.9772 0.101227 0)
(50.9743 0.0808837 0)
(50.9759 0.0623722 0)
(50.9807 0.0464007 0)
(50.9873 0.0331179 0)
(50.9949 0.0223286 0)
(51.0028 0.0137099 0)
(51.0107 0.00692321 0)
(51.0183 0.00168205 0)
(51.0253 -0.00228059 0)
(51.0318 -0.00522085 0)
(51.0376 -0.00740671 0)
(51.0428 -0.00910345 0)
(51.0477 -0.0105734 0)
(51.0523 -0.0119086 0)
(51.0568 -0.0130647 0)
(51.0615 -0.0137918 0)
(51.0664 -0.0139873 0)
(51.0598 -0.0136342 0)
(50.9048 -0.0120749 0)
(50.6032 -0.00950661 0)
(50.2668 -0.00929521 0)
(49.8628 -0.00548688 0)
(51.0601 0.000587729 0)
(51.066 0.00218916 0)
(51.0707 -0.00530412 0)
(51.0768 -0.00808858 0)
(51.0819 -0.00605655 0)
(51.0882 -0.00513591 0)
(51.094 -0.00456797 0)
(51.1004 -0.0030225 0)
(51.1072 -0.00074106 0)
(51.1146 0.00288535 0)
(51.1224 0.00809799 0)
(51.1306 0.0155328 0)
(51.1387 0.0254919 0)
(51.1462 0.0384492 0)
(51.152 0.0545357 0)
(51.1551 0.0737414 0)
(51.1538 0.0954723 0)
(51.1469 0.118536 0)
(51.1332 0.14086 0)
(51.1127 0.159809 0)
(51.0867 0.172591 0)
(51.0577 0.177093 0)
(51.029 0.172569 0)
(51.0038 0.159921 0)
(50.9845 0.141346 0)
(50.9722 0.119643 0)
(50.9666 0.0974124 0)
(50.9664 0.0765745 0)
(50.9703 0.0582211 0)
(50.9767 0.0427463 0)
(50.9845 0.0300662 0)
(50.9929 0.0198656 0)
(51.0014 0.0117605 0)
(51.0097 0.00540698 0)
(51.0176 0.000520184 0)
(51.0248 -0.00315478 0)
(51.0315 -0.00587067 0)
(51.0375 -0.00788236 0)
(51.0429 -0.00945251 0)
(51.048 -0.010834 0)
(51.0527 -0.0121162 0)
(51.0575 -0.0132314 0)
(51.0626 -0.0139362 0)
(51.0657 -0.0141063 0)
(50.9671 -0.012907 0)
(50.6916 -0.010416 0)
(50.3449 -0.00811137 0)
(49.9975 -0.00784438 0)
(49.6026 -0.00466861 0)
(51.0602 0.000587179 0)
(51.0659 0.00255967 0)
(51.0706 -0.00567986 0)
(51.0768 -0.00896494 0)
(51.082 -0.00618935 0)
(51.0882 -0.00532269 0)
(51.094 -0.00480491 0)
(51.1005 -0.00329981 0)
(51.1073 -0.00108643 0)
(51.1149 0.00238422 0)
(51.1229 0.00735856 0)
(51.1315 0.0144979 0)
(51.1401 0.0241542 0)
(51.1484 0.0368659 0)
(51.1553 0.0528624 0)
(51.1597 0.0722557 0)
(51.1602 0.0946223 0)
(51.1552 0.118989 0)
(51.1434 0.143486 0)
(51.1243 0.165536 0)
(51.0986 0.18216 0)
(51.0684 0.190749 0)
(51.0371 0.189851 0)
(51.0082 0.179705 0)
(50.9847 0.162125 0)
(50.9683 0.139922 0)
(50.9593 0.116032 0)
(50.9569 0.0928565 0)
(50.9595 0.0719417 0)
(50.9654 0.0540124 0)
(50.9733 0.0391666 0)
(50.9821 0.027147 0)
(50.9912 0.0175418 0)
(51.0002 0.0099429 0)
(51.0089 0.00400178 0)
(51.017 -0.000548746 0)
(51.0245 -0.00395862 0)
(51.0313 -0.00646499 0)
(51.0376 -0.00831777 0)
(51.0433 -0.0097684 0)
(51.0485 -0.0110722 0)
(51.0534 -0.0122998 0)
(51.0585 -0.0133927 0)
(51.0639 -0.014091 0)
(51.0154 -0.0138067 0)
(50.7733 -0.0112591 0)
(50.4371 -0.00880167 0)
(50.0736 -0.00684348 0)
(49.7291 -0.00658452 0)
(49.3515 -0.00397605 0)
(51.0602 0.000428225 0)
(51.0659 0.00250687 0)
(51.0705 -0.0062525 0)
(51.0768 -0.00979351 0)
(51.082 -0.0063536 0)
(51.0882 -0.00551191 0)
(51.094 -0.00503885 0)
(51.1006 -0.0035899 0)
(51.1075 -0.00144032 0)