/*--------------------------------*- C++ -*----------------------------------*\
  =========                 |
  \\      /  F ield         | OpenFOAM: The Open Source CFD Toolbox
   \\    /   O peration     | Website:  https://openfoam.org
    \\  /    A nd           | Version:  dev
     \\/     M anipulation  |
\*---------------------------------------------------------------------------*/
FoamFile
{
    version     2.0;
    format      ascii;
    class       volScalarField;
    location    "425";
    object      yPlus;
}
// * * * * * * * * * * * * * * * * * * * * * * * * * * * * * * * * * * * * * //

dimensions      [0 0 0 0 0 0 0];

internalField   uniform 0;

boundaryField
{
    inlet-l
    {
        type            calculated;
        value           uniform 0;
    }
    airfoil-l1
    {
        type            calculated;
        value           nonuniform List<scalar> 
71
(
191.519
214.782
249.874
283.688
310.266
327.671
337.986
343.165
344.699
343.721
340.922
337.06
331.701
325.284
318.207
310.737
303.046
295.238
287.37
279.523
271.758
264.096
256.566
249.199
242.021
235.056
228.326
221.845
215.659
209.798
204.297
199.199
194.548
190.384
186.766
183.728
181.292
179.448
178.156
177.368
176.967
176.873
177.049
177.349
177.762
178.133
178.503
178.753
178.88
178.837
178.642
178.204
177.499
176.596
175.452
174.037
172.434
170.591
168.579
166.369
164.046
161.579
159.019
156.389
153.695
150.987
148.268
145.586
142.921
140.414
137.784
)
;
    }
    empty-1
    {
        type            empty;
    }
    empty-2
    {
        type            empty;
    }
    wall-l1
    {
        type            calculated;
        value           nonuniform List<scalar> 
104
(
21.3312
11.5467
22.5019
20.1843
8.60737
10.9258
13.2318
16.1247
15.4745
12.6915
14.5161
13.5178
13.3449
13.9918
13.5271
13.8468
13.7448
13.3208
13.462
13.3749
13.6515
14.2297
14.7272
15.0004
14.7578
14.1749
13.6005
13.2021
13.0457
13.0184
13.0306
13.0814
13.147
13.2455
13.4216
13.6792
13.9696
14.19
14.2142
13.9966
13.6137
13.255
13.1135
13.173
13.2393
13.1925
13.1073
13.1535
13.3593
13.5715
13.6566
13.6136
13.5247
13.4653
13.4561
13.4899
13.5479
13.606
13.6453
13.666
13.6833
13.7131
13.7601
13.8163
13.8625
13.8802
13.8662
13.8316
13.7935
13.7645
13.7481
13.7376
13.724
13.7007
13.6712
13.6469
13.6368
13.6459
13.6766
13.7324
13.8078
13.8811
13.9245
13.9247
13.8909
13.8481
13.8194
13.818
13.8526
13.9379
14.0915
14.3218
14.6045
14.8828
15.0805
15.1353
15.0214
14.7621
14.424
14.0912
13.8333
13.6817
13.6021
13.5862
)
;
    }
    airfoil-l2
    {
        type            calculated;
        value           nonuniform List<scalar> 
104
(
137.432
139.802
141.65
142.983
143.95
144.635
145.098
145.379
145.529
145.575
145.502
145.328
145.087
144.801
144.479
144.126
143.746
143.363
142.958
142.539
142.116
141.689
141.257
140.813
140.367
139.92
139.469
139.015
138.559
138.098
137.63
137.171
136.719
136.256
135.789
135.325
134.863
134.404
133.944
133.479
133.013
132.547
132.081
131.616
131.154
130.69
130.224
129.756
129.291
128.824
128.355
127.884
127.413
126.944
126.472
125.998
125.517
125.038
124.558
124.076
123.586
123.096
122.607
122.106
121.604
121.097
120.583
120.062
119.539
119.016
118.483
117.934
117.382
116.824
116.244
115.668
115.08
114.471
113.852
113.218
112.567
111.892
111.209
110.498
109.759
108.997
108.209
107.383
106.509
105.607
104.657
103.65
102.58
101.439
100.214
98.8885
97.4432
95.8552
94.0894
92.0723
89.7591
86.8709
83.5998
77.3068
)
;
    }
    empty-3
    {
        type            empty;
    }
    empty-4
    {
        type            empty;
    }
    wall-l2
    {
        type            calculated;
        value           nonuniform List<scalar> 
51
(
13.6154
13.6232
13.5315
13.5188
13.4215
13.4883
13.5157
13.4941
13.5198
13.528
13.5965
13.6606
13.6655
13.6856
13.8466
14.3416
15.0727
15.6953
15.8897
15.4853
14.5725
13.6134
13.2441
13.4762
13.6748
13.5571
13.477
13.941
14.7641
15.3528
15.3927
14.9356
14.2241
13.4901
12.8655
12.4557
12.301
12.3126
12.565
13.393
14.5903
15.4274
15.2961
13.9826
12.0736
11.7653
13.4075
14.6648
15.0406
15.3631
15.6001
)
;
    }
    outlet-l
    {
        type            calculated;
        value           uniform 0;
    }
    empty-5
    {
        type            empty;
    }
    empty-6
    {
        type            empty;
    }
    outlet-h
    {
        type            calculated;
        value           uniform 0;
    }
    wall-h2
    {
        type            calculated;
        value           nonuniform List<scalar> 
51
(
13.2869
13.3128
13.3165
13.3443
13.3466
13.3741
13.387
13.3882
13.404
13.4146
13.4341
13.4539
13.471
13.4958
13.5188
13.547
13.5758
13.6007
13.6245
13.6479
13.6763
13.7149
13.7595
13.8068
13.8497
13.88
13.8965
13.9086
13.9279
13.9588
13.9817
14.0111
14.0569
14.1177
14.1697
14.1804
14.1327
14.0402
13.9364
13.857
13.8282
13.8582
13.9236
13.9687
13.9324
13.7903
13.5744
13.3624
13.2164
13.1858
13.2292
)
;
    }
    empty-7
    {
        type            empty;
    }
    empty-8
    {
        type            empty;
    }
    airfoil-h2
    {
        type            calculated;
        value           nonuniform List<scalar> 
104
(
136.086
138.421
140.254
141.586
142.561
143.269
143.757
144.075
144.26
144.351
144.344
144.243
144.075
143.852
143.584
143.291
142.968
142.638
142.284
141.923
141.553
141.171
140.782
140.389
139.989
139.574
139.165
138.75
138.326
137.906
137.479
137.044
136.608
136.181
135.748
135.308
134.862
134.413
133.97
133.521
133.075
132.623
132.17
131.715
131.262
130.808
130.349
129.887
129.425
128.957
128.498
128.024
127.554
127.087
126.613
126.138
125.664
125.184
124.695
124.213
123.72
123.233
122.733
122.232
121.728
121.222
120.71
120.188
119.663
119.134
118.589
118.047
117.493
116.931
116.36
115.775
115.186
114.577
113.959
113.323
112.666
111.999
111.312
110.598
109.862
109.105
108.312
107.486
106.622
105.715
104.759
103.747
102.669
101.525
100.295
98.9673
97.5172
95.9168
94.1302
92.0954
89.7682
86.8668
83.5874
77.2527
)
;
    }
    wall-h1
    {
        type            calculated;
        value           nonuniform List<scalar> 
104
(
6.70759
8.25222
16.0054
15.0323
10.7437
11.5497
12.4498
13.6231
13.3251
12.2386
12.7167
12.2875
12.4172
12.8379
12.7993
12.994
12.9796
12.8877
12.9827
12.932
12.9438
12.9568
12.9332
12.9738
12.9674
12.9494
12.9347
12.9041
12.9002
12.9004
12.8974
12.9044
12.9078
12.9112
12.9176
12.9214
12.9259
12.9317
12.9347
12.9379
12.9412
12.9435
12.9478
12.9523
12.9583
12.9645
12.9708
12.9772
12.9831
12.989
12.994
12.9994
13.0048
13.01
13.0146
13.0199
13.0249
13.0307
13.0361
13.0417
13.0462
13.0506
13.0547
13.0594
13.0641
13.0683
13.073
13.0778
13.0822
13.0865
13.0909
13.095
13.0986
13.1025
13.1064
13.1111
13.1165
13.1226
13.1287
13.1329
13.1352
13.1373
13.1406
13.144
13.1483
13.1532
13.1591
13.1663
13.1741
13.1848
13.1985
13.2145
13.2281
13.2371
13.24
13.2397
13.2382
13.2384
13.2418
13.2471
13.2537
13.2611
13.2637
13.2733
)
;
    }
    empty-9
    {
        type            empty;
    }
    empty-10
    {
        type            empty;
    }
    inlet-h
    {
        type            calculated;
        value           uniform 0;
    }
    airfoil-h1
    {
        type            calculated;
        value           nonuniform List<scalar> 
71
(
189.663
210.094
244.61
279.167
307.516
326.904
338.969
345.539
348.113
347.861
345.555
341.915
336.84
330.507
323.365
315.724
307.779
299.66
291.428
283.189
275
266.888
258.903
251.073
243.406
235.955
228.736
221.789
215.131
208.799
202.843
197.311
192.248
187.7
183.738
180.385
177.679
175.629
174.185
173.283
172.834
172.729
172.901
173.255
173.757
174.231
174.684
175.044
175.297
175.414
175.327
175.067
174.548
173.796
172.789
171.516
170.036
168.331
166.406
164.314
162.061
159.68
157.195
154.634
152.014
149.348
146.703
144.064
141.465
139.025
136.449
)
;
    }
    empty-11
    {
        type            empty;
    }
    empty-12
    {
        type            empty;
    }
}


// ************************************************************************* //
