/*--------------------------------*- C++ -*----------------------------------*\
  =========                 |
  \\      /  F ield         | OpenFOAM: The Open Source CFD Toolbox
   \\    /   O peration     | Website:  https://openfoam.org
    \\  /    A nd           | Version:  dev
     \\/     M anipulation  |
\*---------------------------------------------------------------------------*/
FoamFile
{
    version     2.0;
    format      ascii;
    class       surfaceScalarField;
    location    "400";
    object      phi;
}
// * * * * * * * * * * * * * * * * * * * * * * * * * * * * * * * * * * * * * //

dimensions      [0 3 -1 0 0 0 0];

internalField   nonuniform List<scalar> 
58294
(
-0.47336
-1.28656e-06
-0.473362
-8.77792e-07
-0.429568
-1.63358e-05
-0.473368
-3.49858e-06
-0.429559
-1.04124e-05
-0.389883
-1.75913e-05
-0.473375
-6.81877e-06
-0.429559
-3.65733e-06
-0.389877
-1.6663e-05
-0.353808
-2.12677e-05
-0.473381
-1.03685e-05
-0.429566
4.20859e-07
-0.389867
-1.37032e-05
-0.353807
-1.78142e-05
-0.321079
-2.3941e-05
-0.473384
-1.24992e-05
-0.429578
2.33453e-06
-0.389857
-9.28339e-06
-0.353808
-1.2396e-05
-0.321081
-1.60606e-05
-0.291385
-2.1814e-05
-0.473385
-1.19385e-05
-0.429593
2.48499e-06
-0.389851
-3.73503e-06
-0.353811
-6.40062e-06
-0.321085
-7.75731e-06
-0.291387
-1.41496e-05
-0.264431
-2.33538e-05
-0.473384
-8.51972e-06
-0.429607
1.57977e-06
-0.38985
1.47312e-06
-0.353814
-3.58755e-07
-0.321091
-9.02508e-07
-0.291387
-8.09327e-06
-0.264428
-1.63675e-05
-0.239969
-2.67019e-05
-0.473384
-3.1623e-06
-0.429616
4.10062e-07
-0.389853
4.84719e-06
-0.353817
4.36118e-06
-0.321095
4.13334e-06
-0.291385
-2.7314e-06
-0.264425
-1.11158e-05
-0.239965
-2.044e-05
-0.217762
-3.13003e-05
-0.473384
2.34685e-06
-0.429618
-7.0946e-07
-0.389858
5.45836e-06
-0.353819
6.80758e-06
-0.321098
6.69751e-06
-0.291382
1.38935e-06
-0.264422
-5.88152e-06
-0.239961
-1.51779e-05
-0.217757
-2.50106e-05
-0.197613
-3.61367e-05
-0.473385
6.1917e-06
-0.429614
-1.57208e-06
-0.389862
3.47821e-06
-0.35382
6.66715e-06
-0.321098
7.02592e-06
-0.291379
4.04852e-06
-0.264419
-1.33374e-06
-0.239957
-9.4385e-06
-0.217753
-1.9317e-05
-0.197608
-2.98528e-05
-0.179327
-4.11974e-05
-0.473386
7.11234e-06
-0.429606
-2.25758e-06
-0.389864
2.57556e-08
-0.353821
4.52468e-06
-0.321097
5.89358e-06
-0.291378
5.50733e-06
-0.264417
2.35201e-06
-0.239954
-4.04665e-06
-0.217749
-1.29709e-05
-0.197604
-2.36691e-05
-0.179322
-3.47412e-05
-0.162732
-4.6147e-05
-0.473386
4.86386e-06
-0.429596
-2.74858e-06
-0.389863
-3.26848e-06
-0.353823
1.58517e-06
-0.321097
4.26741e-06
-0.291378
6.20765e-06
-0.264417
5.31607e-06
-0.239953
8.70477e-07
-0.217747
-6.73138e-06
-0.1976
-1.67375e-05
-0.179318
-2.82449e-05
-0.162727
-3.97476e-05
-0.147674
-5.11752e-05
-0.473385
1.71532e-07
-0.429588
-3.11354e-06
-0.389861
-5.00231e-06
-0.353825
-7.83369e-07
-0.321098
3.06832e-06
-0.29138
6.69253e-06
-0.264419
7.75749e-06
-0.239953
5.23886e-06
-0.217745
-8.24072e-07
-0.197597
-9.80106e-06
-0.179314
-2.08616e-05
-0.162722
-3.29254e-05
-0.147669
-4.46497e-05
-0.13401
-5.59738e-05
-0.473382
-5.55773e-06
-0.429584
-3.31703e-06
-0.38986
-4.44902e-06
-0.353829
-1.57041e-06
-0.321102
2.84845e-06
-0.291385
7.3634e-06
-0.264422
9.88035e-06
-0.239954
9.11107e-06
-0.217744
4.68634e-06
-0.197595
-2.9958e-06
-0.17931
-1.32743e-05
-0.162718
-2.51565e-05
-0.147664
-3.76274e-05
-0.134005
-4.95415e-05
-0.121607
-6.07056e-05
-0.473377
-1.0729e-05
-0.429586
-3.39719e-06
-0.389861
-1.79385e-06
-0.353833
-4.31211e-07
-0.321107
3.73579e-06
-0.29139
8.4354e-06
-0.264426
1.18508e-05
-0.239957
1.25491e-05
-0.217745
9.74854e-06
-0.197593
3.50267e-06
-0.179307
-5.73294e-06
-0.162714
-1.71101e-05
-0.14766
-2.95745e-05
-0.134
-4.22112e-05
-0.121603
-5.42473e-05
-0.110354
-6.50219e-05
-0.473372
-1.40177e-05
-0.429594
-3.34611e-06
-0.389867
2.05899e-06
-0.353837
2.26361e-06
-0.321113
5.44007e-06
-0.291396
9.84287e-06
-0.264432
1.36961e-05
-0.239961
1.55953e-05
-0.217747
1.43606e-05
-0.197593
9.64733e-06
-0.179305
1.65969e-06
-0.162711
-8.92401e-06
-0.147656
-2.11069e-05
-0.133996
-3.39176e-05
-0.121598
-4.67575e-05
-0.11035
-5.88469e-05
-0.100143
-6.91921e-05
-0.473366
-1.46906e-05
-0.429604
-3.19961e-06
-0.389876
5.83987e-06
-0.353841
5.6282e-06
-0.321118
7.42412e-06
-0.291402
1.13464e-05
-0.264437
1.53703e-05
-0.239965
1.8257e-05
-0.21775
1.85018e-05
-0.197594
1.53671e-05
-0.179305
8.78026e-06
-0.162709
-7.97773e-07
-0.147652
-1.24816e-05
-0.133992
-2.52128e-05
-0.121594
-3.82744e-05
-0.110345
-5.10908e-05
-0.100139
-6.31689e-05
-0.090877
-7.28671e-05
-0.473362
-1.27433e-05
-0.429616
-2.95428e-06
-0.389887
8.36664e-06
-0.353843
8.59086e-06
-0.321122
9.08525e-06
-0.291407
1.2592e-05
-0.264443
1.67259e-05
-0.23997
2.04873e-05
-0.217754
2.214e-05
-0.197596
2.06116e-05
-0.179305
1.55534e-05
-0.162707
7.188e-06
-0.147649
-3.77152e-06
-0.133988
-1.62416e-05
-0.12159
-2.93016e-05
-0.110341
-4.24737e-05
-0.100135
-5.52915e-05
-0.0908729
-6.73447e-05
-0.0824691
-7.64032e-05
-0.47336
-8.81874e-06
-0.429626
-2.62987e-06
-0.389899
8.8903e-06
-0.353845
1.0234e-05
-0.321123
9.93275e-06
-0.291412
1.32674e-05
-0.264448
1.7614e-05
-0.239976
2.22044e-05
-0.217758
2.52068e-05
-0.197599
2.53098e-05
-0.179306
2.18886e-05
-0.162706
1.49136e-05
-0.147647
4.90122e-06
-0.133985
-7.14131e-06
-0.121586
-2.01324e-05
-0.110337
-3.33884e-05
-0.10013
-4.65863e-05
-0.0908689
-5.91838e-05
-0.0824651
-7.12603e-05
-0.0748325
-7.9354e-05
-0.473359
-3.99784e-06
-0.429633
-2.24633e-06
-0.389909
7.27358e-06
-0.353846
1.00402e-05
-0.321123
9.71053e-06
-0.291415
1.31593e-05
-0.264452
1.78928e-05
-0.239981
2.33096e-05
-0.217764
2.76343e-05
-0.197604
2.939e-05
-0.179308
2.76939e-05
-0.162707
2.22799e-05
-0.147645
1.34472e-05
-0.133982
2.0529e-06
-0.121582
-1.07508e-05
-0.110333
-2.40608e-05
-0.100127
-3.73501e-05
-0.090865
-5.04459e-05
-0.0824614
-6.29199e-05
-0.0748287
-7.50171e-05
-0.067911
-8.21419e-05
-0.47336
5.24331e-07
-0.429635
-1.8673e-06
-0.389916
3.97734e-06
-0.353847
8.00279e-06
-0.321121
8.41976e-06
-0.291417
1.22291e-05
-0.264457
1.75024e-05
-0.239987
2.37323e-05
-0.21777
2.93209e-05
-0.197609
3.27406e-05
-0.179312
3.28649e-05
-0.162708
2.91715e-05
-0.147645
2.17415e-05
-0.13398
1.12406e-05
-0.121579
-1.2079e-06
-0.110329
-1.45366e-05
-0.100123
-2.79993e-05
-0.0908612
-4.11986e-05
-0.0824577
-5.41483e-05
-0.0748252
-6.63155e-05
-0.0679075
-7.84802e-05
-0.0616229
-8.43127e-05
-0.473362
3.74164e-06
-0.429633
-1.57724e-06
-0.389917
-1.32923e-07
-0.353848
4.58259e-06
-0.321119
6.29851e-06
-0.29142
1.05864e-05
-0.264461
1.64536e-05
-0.239993
2.34322e-05
-0.217776
3.02121e-05
-0.197615
3.52743e-05
-0.179316
3.72924e-05
-0.162711
3.54695e-05
-0.147645
2.96582e-05
-0.133978
2.03135e-05
-0.121576
8.45211e-06
-0.110326
-4.77003e-06
-0.100119
-1.84112e-05
-0.0908573
-3.18483e-05
-0.082454
-4.48178e-05
-0.0748218
-5.75736e-05
-0.0679043
-6.95249e-05
-0.0616196
-8.17692e-05
-0.0559222
-8.63829e-05
-0.473364
5.09045e-06
-0.429627
-1.46621e-06
-0.389915
-4.04723e-06
-0.353849
5.55161e-07
-0.321119
3.72131e-06
-0.291422
8.46535e-06
-0.264465
1.48558e-05
-0.239999
2.24488e-05
-0.217783
3.02653e-05
-0.197621
3.68918e-05
-0.179322
4.08364e-05
-0.162714
4.10332e-05
-0.147647
3.70573e-05
-0.133978
2.91301e-05
-0.121574
1.81191e-05
-0.110322
5.20337e-06
-0.100115
-8.54422e-06
-0.0908534
-2.23121e-05
-0.0824503
-3.55763e-05
-0.0748183
-4.82713e-05
-0.067901
-6.08177e-05
-0.0616167
-7.23489e-05
-0.0559191
-8.48294e-05
-0.0507487
-8.78648e-05
-0.473365
4.54885e-06
-0.429621
-1.58287e-06
-0.38991
-6.91628e-06
-0.353849
-3.21628e-06
-0.321119
1.11624e-06
-0.291424
6.15183e-06
-0.264469
1.2869e-05
-0.240005
2.08728e-05
-0.21779
2.95244e-05
-0.197629
3.75598e-05
-0.179328
4.34064e-05
-0.162719
4.57211e-05
-0.14765
4.37873e-05
-0.133978
3.75484e-05
-0.121572
2.76677e-05
-0.11032
1.53027e-05
-0.100111
1.62141e-06
-0.0908495
-1.24408e-05
-0.0824465
-2.61514e-05
-0.0748148
-3.91294e-05
-0.0678978
-5.14778e-05
-0.0616137
-6.37581e-05
-0.0559165
-7.5018e-05
-0.0507458
-8.77722e-05
-0.0460508
-8.93106e-05
-0.473365
2.5956e-06
-0.429614
-1.90618e-06
-0.389903
-8.24151e-06
-0.35385
-6.00517e-06
-0.321121
-1.14393e-06
-0.291427
3.93148e-06
-0.264474
1.07e-05
-0.240011
1.88632e-05
-0.217797
2.80772e-05
-0.197636
3.72846e-05
-0.179336
4.49078e-05
-0.162725
4.93908e-05
-0.147654
4.9674e-05
-0.13398
4.53987e-05
-0.121572
3.69514e-05
-0.110317
2.54017e-05
-0.100108
1.2005e-05
-0.0908457
-2.19566e-06
-0.0824425
-1.6375e-05
-0.074811
-2.9894e-05
-0.0678944
-4.25296e-05
-0.0616107
-5.44847e-05
-0.0559137
-6.6507e-05
-0.0507434
-7.73363e-05
-0.0460481
-9.05325e-05
-0.0417897
-9.02018e-05
-0.473364
1.49357e-08
-0.429609
-2.34085e-06
-0.389897
-7.99455e-06
-0.353851
-7.39524e-06
-0.321124
-2.79389e-06
-0.29143
2.03178e-06
-0.264479
8.54637e-06
-0.240017
1.65986e-05
-0.217805
2.60842e-05
-0.197644
3.61649e-05
-0.179344
4.53522e-05
-0.162732
5.19432e-05
-0.147659
5.45664e-05
-0.133983
5.24981e-05
-0.121572
4.58129e-05
-0.110316
3.53812e-05
-0.100105
2.24978e-05
-0.090842
8.35823e-06
-0.0824386
-6.14773e-06
-0.0748071
-2.02771e-05
-0.0678908
-3.35116e-05
-0.0616075
-4.57175e-05
-0.055911
-5.72124e-05
-0.0507409
-6.89802e-05
-0.0460459
-7.9539e-05
-0.0417871
-9.31988e-05
-0.0379229
-9.11092e-05
-0.473362
-2.3558e-06
-0.429606
-2.74208e-06
-0.389893
-6.54688e-06
-0.353852
-7.3569e-06
-0.321128
-3.7219e-06
-0.291434
5.96689e-07
-0.264483
6.58508e-06
-0.240023
1.42757e-05
-0.217812
2.37274e-05
-0.197653
3.43385e-05
-0.179353
4.47853e-05
-0.16274
5.33276e-05
-0.147665
5.83151e-05
-0.133987
5.86659e-05
-0.121574
5.40566e-05
-0.110315
4.50874e-05
-0.100103
3.29861e-05
-0.0908386
1.90995e-05
-0.0824347
4.4642e-06
-0.0748031
-1.01417e-05
-0.067887
-2.40996e-05
-0.0616041
-3.69769e-05
-0.055908
-4.86924e-05
-0.0507384
-5.97333e-05
-0.0460436
-7.12786e-05
-0.0417851
-8.1413e-05
-0.0379204
-9.57157e-05
-0.0344131
-9.15096e-05
-0.47336
-3.88364e-06
-0.429606
-2.97381e-06
-0.389891
-4.53183e-06
-0.353852
-6.21509e-06
-0.321132
-3.96198e-06
-0.291437
-3.31279e-07
-0.264487
4.93467e-06
-0.240028
1.2056e-05
-0.217819
2.12092e-05
-0.197661
3.20053e-05
-0.179362
4.33547e-05
-0.162749
5.35786e-05
-0.147673
6.08484e-05
-0.133992
6.37258e-05
-0.121577
6.14907e-05
-0.110315
5.43457e-05
-0.100101
4.33562e-05
-0.0908356
2.99408e-05
-0.0824309
1.53383e-05
-0.0747991
4.49016e-07
-0.067883
-1.40991e-05
-0.0616003
-2.78109e-05
-0.0559048
-4.02427e-05
-0.0507357
-5.14232e-05
-0.0460413
-6.19902e-05
-0.041783
-7.33323e-05
-0.0379186
-8.32115e-05
-0.0344107
-9.81565e-05
-0.0312282
-9.19713e-05
-0.473358
-4.2914e-06
-0.429607
-2.95464e-06
-0.389892
-2.6148e-06
-0.353852
-4.514e-06
-0.321134
-3.67496e-06
-0.29144
-7.99462e-07
-0.264491
3.6521e-06
-0.240033
1.00726e-05
-0.217825
1.87005e-05
-0.197669
2.93632e-05
-0.179371
4.12276e-05
-0.162759
5.27898e-05
-0.147681
6.21453e-05
-0.133999
6.75665e-05
-0.121581
6.7911e-05
-0.110317
6.29561e-05
-0.1001
5.34451e-05
-0.090833
4.07806e-05
-0.0824274
2.63812e-05
-0.0747951
1.13461e-05
-0.067879
-3.58576e-06
-0.0615965
-1.79771e-05
-0.0559012
-3.13553e-05
-0.0507326
-4.33001e-05
-0.0460388
-5.39398e-05
-0.0417809
-6.40593e-05
-0.0379167
-7.52325e-05
-0.0344091
-8.47211e-05
-0.031226
-0.000100461
-0.0283386
-9.19736e-05
-0.473357
-3.69689e-06
-0.429608
-2.69428e-06
-0.389893
-1.31132e-06
-0.353852
-2.84587e-06
-0.321136
-3.09057e-06
-0.291443
-9.26851e-07
-0.264495
2.72379e-06
-0.240038
8.38591e-06
-0.217832
1.63483e-05
-0.197677
2.66086e-05
-0.17938
3.86267e-05
-0.162768
5.11269e-05
-0.147691
6.22702e-05
-0.134007
7.01162e-05
-0.121586
7.31594e-05
-0.11032
7.06973e-05
-0.1001
6.30754e-05
-0.0908311
5.15054e-05
-0.0824241
3.75327e-05
-0.0747912
2.2469e-05
-0.0678749
7.264e-06
-0.0615925
-7.57237e-06
-0.0558975
-2.1724e-05
-0.0507293
-3.47201e-05
-0.046036
-4.61438e-05
-0.0417787
-5.62306e-05
-0.0379148
-6.58922e-05
-0.0344074
-7.69313e-05
-0.0312245
-8.61937e-05
-0.0283364
-0.00010269
-0.0257161
-9.20655e-05
-0.473356
-2.49559e-06
-0.42961
-2.28546e-06
-0.389895
-8.4809e-07
-0.353852
-1.67088e-06
-0.321136
-2.45572e-06
-0.291445
-8.67422e-07
-0.264498
2.08673e-06
-0.240042
7.01139e-06
-0.217837
1.42285e-05
-0.197685
2.39002e-05
-0.179389
3.57393e-05
-0.162779
4.87822e-05
-0.147701
6.13394e-05
-0.134016
7.1398e-05
-0.121593
7.71289e-05
-0.110324
7.73827e-05
-0.100102
7.20211e-05
-0.09083
6.19545e-05
-0.0824213
4.86973e-05
-0.0747875
3.37648e-05
-0.0678708
1.83493e-05
-0.0615884
3.17229e-06
-0.0558936
-1.14667e-05
-0.0507257
-2.53081e-05
-0.0460328
-3.7881e-05
-0.041776
-4.87849e-05
-0.0379128
-5.83201e-05
-0.0344057
-6.75651e-05
-0.0312229
-7.85036e-05
-0.0283351
-8.74073e-05
-0.025714
-0.000104782
-0.0233367
-9.17621e-05
-0.473355
-1.19283e-06
-0.42961
-1.86676e-06
-0.389896
-1.15777e-06
-0.353852
-1.21163e-06
-0.321136
-1.96904e-06
-0.291447
-7.74962e-07
-0.2645
1.63854e-06
-0.240046
5.90697e-06
-0.217843
1.23766e-05
-0.197692
2.1343e-05
-0.179398
3.27645e-05
-0.162789
4.59625e-05
-0.147712
5.95325e-05
-0.134026
7.14739e-05
-0.121602
7.9769e-05
-0.11033
8.28471e-05
-0.100104
8.00731e-05
-0.0908299
7.19202e-05
-0.0824191
5.97611e-05
-0.0747839
4.5196e-05
-0.0678667
2.96557e-05
-0.0615842
1.41455e-05
-0.0558895
-8.65252e-07
-0.0507219
-1.52132e-05
-0.0460294
-2.87027e-05
-0.041773
-4.08559e-05
-0.0379103
-5.12183e-05
-0.0344039
-6.02048e-05
-0.0312214
-6.90404e-05
-0.0283337
-7.99114e-05
-0.0257129
-8.8604e-05
-0.0233348
-0.000106794
-0.0211765
-9.1581e-05
-0.473355
-2.14359e-07
-0.42961
-1.56647e-06
-0.389896
-1.94705e-06
-0.353851
-1.42285e-06
-0.321135
-1.7449e-06
-0.291448
-7.65479e-07
-0.264502
1.27727e-06
-0.240049
5.00271e-06
-0.217848
1.07752e-05
-0.197698
1.89914e-05
-0.179407
2.98148e-05
-0.162799
4.28676e-05
-0.147723
5.70274e-05
-0.134037
7.04888e-05
-0.121611
8.11071e-05
-0.110337
8.70023e-05
-0.100108
8.70357e-05
-0.090831
8.11939e-05
-0.0824178
7.05374e-05
-0.0747809
5.66706e-05
-0.0678626
4.11705e-05
-0.0615799
2.53361e-05
-0.0558853
9.92681e-06
-0.050718
-4.78704e-06
-0.0460258
-1.87825e-05
-0.0417698
-3.19066e-05
-0.0379076
-4.36226e-05
-0.0344016
-5.34558e-05
-0.0312197
-6.19139e-05
-0.0283324
-7.03856e-05
-0.0257116
-8.12111e-05
-0.0233337
-8.95743e-05
-0.0211747
-0.000108669
-0.019217
-9.10754e-05
-0.473356
2.26416e-07
-0.429609
-1.46113e-06
-0.389895
-2.84518e-06
-0.353851
-2.06278e-06
-0.321135
-1.79461e-06
-0.291449
-8.97283e-07
-0.264504
9.17092e-07
-0.240052
4.21731e-06
-0.217852
9.37531e-06
-0.197704
1.68608e-05
-0.179414
2.69891e-05
-0.162809
3.9646e-05
-0.147734
5.40423e-05
-0.134049
6.85876e-05
-0.121622
8.1218e-05
-0.110345
8.97934e-05
-0.100114
9.27607e-05
-0.0908335
8.95565e-05
-0.0824174
8.08287e-05
-0.0747784
6.80396e-05
-0.0678588
5.28622e-05
-0.0615755
3.67986e-05
-0.0558809
2.09262e-05
-0.0507139
5.78388e-06
-0.0460221
-8.53914e-06
-0.0417665
-2.21485e-05
-0.0379046
-3.49086e-05
-0.034399
-4.62035e-05
-0.0312177
-5.55045e-05
-0.0283308
-6.34506e-05
-0.0257104
-7.15699e-05
-0.0233326
-8.23796e-05
-0.0211737
-9.05439e-05
-0.0192153
-0.000110467
-0.0174384
-9.07119e-05
-0.473355
1.50621e-07
-0.429607
-1.5419e-06
-0.389893
-3.52706e-06
-0.353851
-2.80725e-06
-0.321135
-2.04455e-06
-0.29145
-1.16301e-06
-0.264506
5.14684e-07
-0.240055
3.48582e-06
-0.217856
8.11906e-06
-0.19771
1.49201e-05
-0.179422
2.43213e-05
-0.162818
3.64144e-05
-0.147745
5.07236e-05
-0.13406
6.59803e-05
-0.121634
8.02225e-05
-0.110355
9.12625e-05
-0.100122
9.71499e-05
-0.0908376
9.68292e-05
-0.0824182
9.04205e-05
-0.0747767
7.91293e-05
-0.0678554
6.46116e-05
-0.0615712
4.85304e-05
-0.0558763
3.22149e-05
-0.0507095
1.65129e-05
-0.0460181
1.77644e-06
-0.0417629
-1.20873e-05
-0.0379014
-2.53144e-05
-0.0343962
-3.77167e-05
-0.0312153
-4.85845e-05
-0.0283289
-5.73789e-05
-0.025709
-6.4839e-05
-0.0233315
-7.2653e-05
-0.0211727
-8.34543e-05
-0.0192145
-9.13154e-05
-0.0174368
-0.000112135
-0.0158248
-9.00987e-05
-0.473355
-2.48303e-07
-0.429605
-1.73561e-06
-0.389891
-3.82289e-06
-0.353851
-3.37169e-06
-0.321135
-2.37408e-06
-0.29145
-1.50534e-06
-0.264507
6.81795e-08
-0.240057
2.76794e-06
-0.217859
6.95569e-06
-0.197715
1.31387e-05
-0.179429
2.18171e-05
-0.162827
3.32528e-05
-0.147756
4.72291e-05
-0.134073
6.28117e-05
-0.121646
7.82911e-05
-0.110367
9.14529e-05
-0.10013
0.000100164
-0.0908433
0.000102853
-0.0824205
9.91133e-05
-0.074776
8.97346e-05
-0.0678526
7.62717e-05
-0.061567
6.04626e-05
-0.0558717
4.38557e-05
-0.0507048
2.75499e-05
-0.0460138
1.2195e-05
-0.0417591
-2.0342e-06
-0.0378981
-1.54221e-05
-0.0343933
-2.82682e-05
-0.0312127
-4.03259e-05
-0.0283267
-5.07949e-05
-0.0257073
-5.90882e-05
-0.0233302
-6.6087e-05
-0.0211717
-7.36074e-05
-0.0192135
-8.442e-05
-0.017436
-9.20908e-05
-0.0158232
-0.000113732
-0.0143603
-8.96335e-05
-0.473354
-7.02563e-07
-0.429603
-1.93115e-06
-0.389889
-3.72665e-06
-0.353852
-3.6013e-06
-0.321136
-2.66029e-06
-0.291451
-1.84324e-06
-0.264508
-3.86588e-07
-0.240059
2.06146e-06
-0.217862
5.85435e-06
-0.19772
1.1479e-05
-0.179435
1.94632e-05
-0.162836
3.01866e-05
-0.147766
4.36614e-05
-0.134085
5.92578e-05
-0.121659
7.55676e-05
-0.110379
9.05212e-05
-0.100141
0.000101808
-0.0908506
0.000107546
-0.0824244
0.000106721
-0.0747765
9.96606e-05
-0.0678505
8.76638e-05
-0.0615632
7.24795e-05
-0.055867
5.58085e-05
-0.0506999
3.89837e-05
-0.0460091
2.28989e-05
-0.041755
8.0303e-06
-0.0378945
-5.63522e-06
-0.0343902
-1.85334e-05
-0.0312099
-3.10241e-05
-0.0283243
-4.27532e-05
-0.0257052
-5.28219e-05
-0.0233287
-6.06451e-05
-0.0211706
-6.72141e-05
-0.0192126
-7.44783e-05
-0.0174351
-8.53006e-05
-0.0158226
-9.27047e-05
-0.0143589
-0.000115209
-0.0130313
-8.89785e-05
-0.473353
-1.0033e-06
-0.429602
-2.02325e-06
-0.389888
-3.35892e-06
-0.353852
-3.49127e-06
-0.321137
-2.81834e-06
-0.291451
-2.10181e-06
-0.264509
-7.99583e-07
-0.240061
1.38768e-06
-0.217865
4.81231e-06
-0.197724
9.9234e-06
-0.179441
1.72491e-05
-0.162843
2.72425e-05
-0.147776
4.00901e-05
-0.134096
5.54518e-05
-0.121672
7.22209e-05
-0.110392
8.85589e-05
-0.100152
0.000102165
-0.0908597
0.000110825
-0.0824299
0.000113102
-0.0747785
0.000108702
-0.0678494
9.86003e-05
-0.06156
8.44254e-05
-0.0558625
6.79864e-05
-0.0506949
5.0821e-05
-0.0460042
3.40425e-05
-0.0417504
1.83593e-05
-0.0378905
4.0702e-06
-0.0343868
-9.0011e-06
-0.0312071
-2.14266e-05
-0.0283218
-3.35757e-05
-0.025703
-4.4994e-05
-0.0233268
-5.46932e-05
-0.0211691
-6.20634e-05
-0.0192116
-6.82265e-05
-0.0174344
-7.52439e-05
-0.0158218
-8.6092e-05
-0.0143583
-9.33263e-05
-0.0130299
-0.000116619
-0.0118253
-8.8464e-05
-0.473352
-1.05794e-06
-0.429601
-1.95298e-06
-0.389887
-2.89489e-06
-0.353852
-3.14697e-06
-0.321137
-2.82055e-06
-0.291452
-2.23661e-06
-0.26451
-1.1232e-06
-0.240063
7.85729e-07
-0.217868
3.84491e-06
-0.197727
8.47106e-06
-0.179446
1.51647e-05
-0.16285
2.44264e-05
-0.147785
3.65691e-05
-0.134108
5.14932e-05
-0.121685
6.84136e-05
-0.110405
8.57444e-05
-0.100165
0.000101303
-0.0908702
0.000112737
-0.0824372
0.000118127
-0.0747821
0.000116693
-0.0678496
0.000108879
-0.0615575
9.61337e-05
-0.0558584
8.02654e-05
-0.0506899
6.29983e-05
-0.045999
4.5656e-05
-0.0417455
2.91365e-05
-0.0378861
1.39829e-05
-0.0343831
3.3201e-07
-0.0312039
-1.21381e-05
-0.0283191
-2.41003e-05
-0.0257006
-3.59445e-05
-0.0233247
-4.7066e-05
-0.0211674
-5.64006e-05
-0.0192103
-6.3351e-05
-0.0174334
-6.9137e-05
-0.0158211
-7.59405e-05
-0.0143576
-8.68087e-05
-0.0130294
-9.38214e-05
-0.0118241
-0.000117916
-0.0107313
-8.78052e-05
-0.473352
-8.97099e-07
-0.4296
-1.71777e-06
-0.389886
-2.47979e-06
-0.353852
-2.72868e-06
-0.321138
-2.68854e-06
-0.291452
-2.24392e-06
-0.264511
-1.33385e-06
-0.240064
2.88794e-07
-0.21787
2.98221e-06
-0.197731
7.13559e-06
-0.179451
1.32228e-05
-0.162857
2.17534e-05
-0.147794
3.31422e-05
-0.134119
4.74759e-05
-0.121698
6.4259e-05
-0.110419
8.2225e-05
-0.100179
9.93531e-05
-0.0908822
0.000113269
-0.0824463
0.000121765
-0.0747874
0.00012345
-0.0678512
0.000118314
-0.061556
0.000107407
-0.0558547
9.24977e-05
-0.0506851
7.54144e-05
-0.0459937
5.76953e-05
-0.0417403
4.04366e-05
-0.0378813
2.43542e-05
-0.0343789
9.82349e-06
-0.0312004
-3.16145e-06
-0.0283162
-1.50365e-05
-0.0256982
-2.65714e-05
-0.0233226
-3.81205e-05
-0.0211655
-4.89652e-05
-0.0192088
-5.7972e-05
-0.0174323
-6.45227e-05
-0.0158202
-6.99543e-05
-0.0143569
-7.65549e-05
-0.0130287
-8.74546e-05
-0.0118236
-9.43151e-05
-0.0107301
-0.000119152
-0.00973847
-8.73064e-05
-0.473352
-6.36835e-07
-0.4296
-1.36675e-06
-0.389886
-2.17668e-06
-0.353852
-2.36577e-06
-0.321138
-2.47961e-06
-0.291453
-2.15137e-06
-0.264512
-1.43435e-06
-0.240065
-8.51715e-08
-0.217872
2.24907e-06
-0.197733
5.94079e-06
-0.179455
1.14328e-05
-0.162863
1.9244e-05
-0.147802
2.98414e-05
-0.134129
4.3475e-05
-0.12171
5.98929e-05
-0.110433
7.81403e-05
-0.100193
9.64652e-05
-0.0908954
0.000112527
-0.0824569
0.000123946
-0.0747945
0.000128889
-0.0678545
0.000126694
-0.0615558
0.000118064
-0.0558518
0.000104509
-0.0506805
8.79462e-05
-0.0459884
7.00838e-05
-0.0417348
5.22307e-05
-0.0378762
3.52802e-05
-0.0343743
1.97548e-05
-0.0311965
5.89676e-06
-0.0283129
-6.41335e-06
-0.0256955
-1.77173e-05
-0.0233203
-2.88378e-05
-0.0211635
-4.01287e-05
-0.019207
-5.07151e-05
-0.0174308
-5.94023e-05
-0.0158192
-6.55832e-05
-0.0143562
-7.0691e-05
-0.0130282
-7.71143e-05
-0.011823
-8.80355e-05
-0.0107297
-9.47163e-05
-0.00973737
-0.000120282
-0.00883648
-8.58599e-05
-0.473352
-4.05946e-07
-0.429599
-9.77401e-07
-0.389885
-1.98255e-06
-0.353852
-2.11508e-06
-0.321138
-2.25284e-06
-0.291453
-2.00794e-06
-0.264512
-1.45045e-06
-0.240066
-3.41874e-07
-0.217873
1.6565e-06
-0.197736
4.90545e-06
-0.179459
9.82226e-06
-0.162869
1.6917e-05
-0.14781
2.67116e-05
-0.134139
3.95527e-05
-0.121722
5.54167e-05
-0.110447
7.36374e-05
-0.100208
9.27589e-05
-0.0909095
0.000110614
-0.0824691
0.000124708
-0.0748035
0.000132873
-0.0678595
0.000133895
-0.061557
0.000127877
-0.0558499
0.000116123
-0.0506765
0.000100438
-0.0459832
8.27163e-05
-0.0417292
6.44588e-05
-0.0378707
4.67446e-05
-0.0343693
3.02626e-05
-0.0311921
1.53835e-05
-0.0283093
2.22766e-06
-0.0256925
-9.42299e-06
-0.0233178
-2.01765e-05
-0.0211615
-3.09188e-05
-0.0192052
-4.1962e-05
-0.0174292
-5.23135e-05
-0.0158179
-6.07161e-05
-0.0143552
-6.65518e-05
-0.0130275
-7.13549e-05
-0.0118225
-7.76109e-05
-0.0107292
-8.85589e-05
-0.009737
-9.51182e-05
-0.00883617
-0.000120651
-0.00801273
-8.0434e-05
-0.473352
-2.84866e-07
-0.429599
-6.27657e-07
-0.389884
-1.83175e-06
-0.353852
-1.96982e-06
-0.321138
-2.04458e-06
-0.291454
-1.85917e-06
-0.264513
-1.41971e-06
-0.240067
-5.03865e-07
-0.217875
1.1973e-06
-0.197739
4.03349e-06
-0.179463
8.40301e-06
-0.162874
1.48011e-05
-0.147817
2.37749e-05
-0.134148
3.57763e-05
-0.121733
5.09297e-05
-0.11046
6.88584e-05
-0.100222
8.84071e-05
-0.0909244
0.000107642
-0.0824826
0.000124115
-0.0748141
0.00013537
-0.0678663
0.000139715
-0.0615598
0.000136696
-0.0558491
0.000127123
-0.0506731
0.000112743
-0.0459782
9.54656e-05
-0.0417235
7.70313e-05
-0.0378649
5.87047e-05
-0.0343639
4.134e-05
-0.0311873
2.54532e-05
-0.0283051
1.12638e-05
-0.0256891
-1.19446e-06
-0.023315
-1.22045e-05
-0.0211592
-2.24373e-05
-0.0192033
-3.28146e-05
-0.0174276
-4.36501e-05
-0.0158164
-5.37845e-05
-0.014354
-6.19128e-05
-0.0130266
-6.74298e-05
-0.0118219
-7.19558e-05
-0.0107287
-7.80597e-05
-0.00973651
-8.90244e-05
-0.00883572
-9.55763e-05
-0.00801729
-0.000116112
-0.00725089
-7.1513e-05
-0.473352
-2.92203e-07
-0.429599
-3.65018e-07
-0.389883
-1.66407e-06
-0.353852
-1.8662e-06
-0.321138
-1.87235e-06
-0.291454
-1.73043e-06
-0.264513
-1.37701e-06
-0.240068
-6.04957e-07
-0.217876
8.48056e-07
-0.197741
3.31575e-06
-0.179466
7.17778e-06
-0.162878
1.29117e-05
-0.147823
2.10748e-05
-0.134156
3.21831e-05
-0.121744
4.65245e-05
-0.110473
6.39236e-05
-0.100237
8.35601e-05
-0.0909398
0.000103768
-0.0824972
0.000122232
-0.0748264
0.000136387
-0.067875
0.000144075
-0.0615644
0.000144289
-0.0558498
0.000137351
-0.0506706
0.000124654
-0.0459736
0.0001082
-0.0417179
8.9837e-05
-0.037859
7.10824e-05
-0.0343581
5.29569e-05
-0.0311821
3.61047e-05
-0.0283006
2.08835e-05
-0.0256852
7.40876e-06
-0.0233119
-4.36466e-06
-0.0211566
-1.47638e-05
-0.0192012
-2.44968e-05
-0.0174258
-3.45487e-05
-0.0158149
-4.51843e-05
-0.0143527
-5.51256e-05
-0.0130255
-6.30139e-05
-0.0118211
-6.82369e-05
-0.0107282
-7.24961e-05
-0.0097361
-7.84593e-05
-0.00883529
-8.94308e-05
-0.00801816
-9.47323e-05
-0.00726179
-0.000105248
-0.00655242
-6.18262e-05
-0.473352
-3.86062e-07
-0.429599
-2.16224e-07
-0.389882
-1.44471e-06
-0.353852
-1.74444e-06
-0.321138
-1.72472e-06
-0.291454
-1.63199e-06
-0.264514
-1.34003e-06
-0.240069
-6.75755e-07
-0.217878
5.78111e-07
-0.197743
2.72626e-06
-0.179469
6.13342e-06
-0.162882
1.12484e-05
-0.147829
1.86272e-05
-0.134164
2.88313e-05
-0.121754
4.22611e-05
-0.110486
5.89675e-05
-0.100252
7.83745e-05
-0.0909554
9.91621e-05
-0.0825127
0.000119204
-0.0748401
0.000135933
-0.0678855
0.000146905
-0.0615708
0.000150517
-0.055852
0.000146552
-0.0506693
0.000136026
-0.0459697
0.000120748
-0.0417125
0.000102777
-0.0378529
8.37868e-05
-0.0343521
6.50399e-05
-0.0311765
4.73197e-05
-0.0282956
3.10899e-05
-0.0256809
1.6588e-05
-0.0233083
3.81493e-06
-0.0211537
-7.3035e-06
-0.0191989
-1.71137e-05
-0.017424
-2.63808e-05
-0.0158133
-3.61203e-05
-0.0143513
-4.65948e-05
-0.0130243
-5.63599e-05
-0.0118201
-6.40207e-05
-0.0107275
-6.89669e-05
-0.00973561
-7.29841e-05
-0.00883491
-7.88344e-05
-0.00801833
-8.92385e-05
-0.00726818
-8.83533e-05
-0.00656552
-9.21626e-05
-0.00591606
-5.23231e-05
-0.473352
-4.95556e-07
-0.429599
-1.69264e-07
-0.389881
-1.18486e-06
-0.353852
-1.57056e-06
-0.321139
-1.58949e-06
-0.291454
-1.55138e-06
-0.264514
-1.31596e-06
-0.240069
-7.35194e-07
-0.217879
3.58621e-07
-0.197744
2.23703e-06
-0.179471
5.24324e-06
-0.162886
9.80077e-06
-0.147834
1.64386e-05
-0.134171
2.57479e-05
-0.121763
3.82187e-05
-0.110498
5.40669e-05
-0.100266
7.3009e-05
-0.090971
9.39858e-05
-0.0825287
0.000115185
-0.074855
0.000134117
-0.0678978
0.000148164
-0.0615792
0.000155269
-0.0558561
0.000154563
-0.0506694
0.000146607
-0.0459667
0.000132981
-0.0417074
0.0001157
-0.0378469
9.67307e-05
-0.0343458
7.75083e-05
-0.0311704
5.9032e-05
-0.0282901
4.1874e-05
-0.0256762
2.63447e-05
-0.0233043
1.25627e-05
-0.0211504
4.78327e-07
-0.0191962
-1.00085e-05
-0.0174218
-1.92629e-05
-0.0158116
-2.80859e-05
-0.0143499
-3.75519e-05
-0.013023
-4.78719e-05
-0.011819
-5.74889e-05
-0.0107265
-6.49499e-05
-0.00973494
-6.96366e-05
-0.00883447
-7.34207e-05
-0.00801803
-7.91266e-05
-0.00727268
-8.47288e-05
-0.00657514
-7.87406e-05
-0.00592922
-7.9021e-05
-0.00533912
-4.37521e-05
-0.473352
-5.59285e-07
-0.4296
-1.98553e-07
-0.38988
-9.23646e-07
-0.353852
-1.35034e-06
-0.321139
-1.45647e-06
-0.291454
-1.47528e-06
-0.264514
-1.29415e-06
-0.24007
-7.90918e-07
-0.217879
1.6954e-07
-0.197746
1.82126e-06
-0.179473
4.47897e-06
-0.162889
8.53799e-06
-0.147838
1.44999e-05
-0.134178
2.29469e-05
-0.121772
3.44421e-05
-0.110509
4.93376e-05
-0.100279
6.7573e-05
-0.0909864
8.84345e-05
-0.082545
0.000110347
-0.0748709
0.000131064
-0.0679115
0.000147893
-0.0615894
0.00015842
-0.055862
0.000161216
-0.050671
0.000156213
-0.0459647
0.00014466
-0.041703
0.000128508
-0.037841
0.0001098
-0.0343394
9.02999e-05
-0.0311641
7.11719e-05
-0.0282843
5.31669e-05
-0.025671
3.66764e-05
-0.0232998
2.18789e-05
-0.0211466
8.81921e-06
-0.0191931
-2.61074e-06
-0.0174193
-1.25003e-05
-0.0158096
-2.12238e-05
-0.0143483
-2.96378e-05
-0.0130217
-3.88432e-05
-0.0118178
-4.90489e-05
-0.0107255
-5.85323e-05
-0.0097341
-6.57974e-05
-0.00883386
-7.02364e-05
-0.00801762
-7.38319e-05
-0.00727472
-7.70799e-05
-0.00658445
-7.54092e-05
-0.00593948
-6.85078e-05
-0.00535127
-6.68762e-05
-0.00481762
-3.62045e-05
-0.473352
-5.44351e-07
-0.4296
-2.74646e-07
-0.38988
-7.15702e-07
-0.353852
-1.11941e-06
-0.321139
-1.32631e-06
-0.291455
-1.39337e-06
-0.264515
-1.26393e-06
-0.24007
-8.3747e-07
-0.21788
2.77975e-09
-0.197747
1.458e-06
-0.179475
3.81668e-06
-0.162892
7.43449e-06
-0.147843
1.27821e-05
-0.134184
2.04282e-05
-0.12178
3.09568e-05
-0.110519
4.48409e-05
-0.100292
6.22114e-05
-0.0910015
8.26312e-05
-0.0825615
0.000104896
-0.0748875
0.000126933
-0.0679266
0.00014618
-0.0616015
0.000159962
-0.0558699
0.000166341
-0.0506744
0.000164653
-0.0459641
0.000155609
-0.0416993
0.000140993
-0.0378354
0.000122921
-0.0343329
0.000103315
-0.0311575
8.36794e-05
-0.028278
6.49034e-05
-0.0256653
4.75186e-05
-0.0232949
3.17646e-05
-0.0211425
1.77112e-05
-0.0191896
5.33836e-06
-0.0174165
-5.45967e-06
-0.0158074
-1.47796e-05
-0.0143465
-2.30072e-05
-0.0130203
-3.1033e-05
-0.0118166
-4.00188e-05
-0.0107244
-5.01183e-05
-0.00973315
-5.94892e-05
-0.0088331
-6.65739e-05
-0.00801705
-7.08035e-05
-0.00727518
-7.33653e-05
-0.0065921
-6.94261e-05
-0.00595003
-6.48433e-05
-0.00536098
-5.87997e-05
-0.0048283
-5.62129e-05
-0.00434722
-2.98677e-05
-0.473352
-4.66569e-07
-0.4296
-3.58817e-07
-0.389879
-5.98979e-07
-0.353851
-9.25322e-07
-0.321139
-1.20776e-06
-0.291455
-1.30311e-06
-0.264515
-1.2177e-06
-0.240071
-8.66415e-07
-0.217881
-1.4037e-07
-0.197748
1.14042e-06
-0.179477
3.23141e-06
-0.162895
6.46602e-06
-0.147847
1.12607e-05
-0.134189
1.81646e-05
-0.121788
2.77774e-05
-0.110529
4.06262e-05
-0.100304
5.70176e-05
-0.091016
7.67643e-05
-0.0825778
9.89735e-05
-0.0749045
0.00012193
-0.0679429
0.000143141
-0.0616152
0.000159908
-0.0558798
0.00016985
-0.0506798
0.000171702
-0.0459651
0.000165621
-0.0416967
0.000152988
-0.0378303
0.000135916
-0.0343265
0.000116513
-0.0311507
9.64849e-05
-0.0282713
7.70395e-05
-0.0256592
5.88114e-05
-0.0232895
4.21469e-05
-0.0211378
2.71548e-05
-0.0191857
1.38266e-05
-0.0174133
2.12596e-06
-0.0158047
-8.08146e-06
-0.0143444
-1.68681e-05
-0.0130187
-2.46238e-05
-0.0118154
-3.22988e-05
-0.0107234
-4.1083e-05
-0.00973217
-5.11102e-05
-0.00883223
-6.03664e-05
-0.00801635
-6.72812e-05
-0.00727482
-7.11467e-05
-0.00659746
-6.80002e-05
-0.00596006
-5.93932e-05
-0.00537123
-5.45861e-05
-0.00483695
-5.01673e-05
-0.0043563
-4.71339e-05
-0.00392334
-2.45686e-05
-0.473352
-3.4401e-07
-0.4296
-4.33207e-07
-0.389879
-5.80173e-07
-0.353851
-8.03071e-07
-0.321138
-1.11227e-06
-0.291455
-1.21097e-06
-0.264515
-1.15472e-06
-0.240071
-8.72485e-07
-0.217882
-2.53974e-07
-0.197749
8.65758e-07
-0.179479
2.71906e-06
-0.162897
5.60352e-06
-0.14785