/*--------------------------------*- C++ -*----------------------------------*\
  =========                 |
  \\      /  F ield         | OpenFOAM: The Open Source CFD Toolbox
   \\    /   O peration     | Website:  https://openfoam.org
    \\  /    A nd           | Version:  dev
     \\/     M anipulation  |
\*---------------------------------------------------------------------------*/
FoamFile
{
    version     2.0;
    format      ascii;
    class       volVectorField;
    location    "400";
    object      U;
}
// * * * * * * * * * * * * * * * * * * * * * * * * * * * * * * * * * * * * * //

dimensions      [0 1 -1 0 0 0 0];

internalField   nonuniform List<vector> 
29380
(
(51.0606 -0.000826195 0)
(51.0603 -0.00232178 0)
(51.0634 5.52435e-05 0)
(51.0607 -0.00390874 0)
(51.0609 0.0012883 0)
(51.071 -0.00297132 0)
(51.0614 -0.00506909 0)
(51.0605 0.00194624 0)
(51.0706 -0.00273253 0)
(51.0712 -0.00198746 0)
(51.0622 -0.00571078 0)
(51.0607 0.00198328 0)
(51.0694 -0.00212229 0)
(51.0705 -0.00220093 0)
(51.0729 -0.00312259 0)
(51.0627 -0.00554711 0)
(51.0618 0.00147128 0)
(51.0678 -0.00148795 0)
(51.0706 -0.00190517 0)
(51.0726 -0.00225155 0)
(51.076 -0.0025141 0)
(51.0629 -0.00450246 0)
(51.0635 0.000659828 0)
(51.0665 -0.000848027 0)
(51.0708 -0.00116353 0)
(51.0732 -0.00128167 0)
(51.0765 -0.00169231 0)
(51.0781 -0.00294339 0)
(51.0629 -0.0027022 0)
(51.0654 -7.08914e-05 0)
(51.0659 -0.000358167 0)
(51.0713 -3.92354e-05 0)
(51.0741 -0.000400212 0)
(51.0767 -0.000814376 0)
(51.0778 -0.00214502 0)
(51.0794 -0.00297011 0)
(51.0629 -0.000494986 0)
(51.067 -0.000410977 0)
(51.0661 -0.000159498 0)
(51.0718 0.00116255 0)
(51.075 0.00032144 0)
(51.0765 3.62246e-05 0)
(51.0773 -0.00156089 0)
(51.0785 -0.00239519 0)
(51.0801 -0.00374736 0)
(51.0629 0.0015893 0)
(51.068 -0.000264795 0)
(51.0668 -0.000333049 0)
(51.0722 0.00205855 0)
(51.0757 0.000735836 0)
(51.0761 0.000771974 0)
(51.0767 -0.000927237 0)
(51.0777 -0.00182051 0)
(51.0788 -0.00319578 0)
(51.0807 -0.00410495 0)
(51.063 0.0029748 0)
(51.0681 0.000220216 0)
(51.0677 -0.000860579 0)
(51.0725 0.00233715 0)
(51.0759 0.00079836 0)
(51.0756 0.00127676 0)
(51.0761 -0.000311063 0)
(51.0769 -0.00108891 0)
(51.0779 -0.00264928 0)
(51.0792 -0.00363217 0)
(51.0811 -0.00490218 0)
(51.0632 0.00319391 0)
(51.0675 0.000719524 0)
(51.0683 -0.00158774 0)
(51.0727 0.00192061 0)
(51.0758 0.00054821 0)
(51.0751 0.00153694 0)
(51.0756 0.00025143 0)
(51.0762 -0.000297865 0)
(51.077 -0.00190192 0)
(51.0781 -0.00307468 0)
(51.0794 -0.00444258 0)
(51.0814 -0.00540099 0)
(51.0633 0.00204717 0)
(51.0664 0.000882178 0)
(51.0685 -0.00226599 0)
(51.0729 0.00101604 0)
(51.0757 0.000113978 0)
(51.075 0.00161654 0)
(51.0754 0.000762967 0)
(51.0757 0.000511451 0)
(51.0762 -0.00104277 0)
(51.077 -0.00227707 0)
(51.0782 -0.00387524 0)
(51.0796 -0.00499897 0)
(51.0816 -0.00611992 0)
(51.0633 -0.000321321 0)
(51.0651 0.000464116 0)
(51.0683 -0.00262089 0)
(51.0732 5.51486e-05 0)
(51.0757 -0.000311855 0)
(51.0752 0.0016388 0)
(51.0755 0.00124143 0)
(51.0755 0.00132088 0)
(51.0757 -9.39927e-05 0)
(51.0762 -0.00132304 0)
(51.0769 -0.00304737 0)
(51.0782 -0.00444989 0)
(51.0796 -0.00575778 0)
(51.0817 -0.00667158 0)
(51.0631 -0.00342743 0)
(51.0642 -0.000567424 0)
(51.068 -0.00246145 0)
(51.0736 -0.000473776 0)
(51.076 -0.000527995 0)
(51.0757 0.00174578 0)
(51.0759 0.00172663 0)
(51.0756 0.00213217 0)
(51.0754 0.000927641 0)
(51.0755 -0.000231843 0)
(51.0758 -0.00202965 0)
(51.0768 -0.00361877 0)
(51.0781 -0.00522238 0)
(51.0795 -0.00636065 0)
(51.0818 -0.00730917 0)
(51.0627 -0.0065638 0)
(51.0637 -0.00202566 0)
(51.0677 -0.00175086 0)
(51.0741 -0.00020643 0)
(51.0767 -0.000383157 0)
(51.0766 0.00204829 0)
(51.0766 0.00226355 0)
(51.076 0.00296028 0)
(51.0754 0.00201314 0)
(51.075 0.000978823 0)
(51.0749 -0.000833509 0)
(51.0755 -0.00256467 0)
(51.0765 -0.00439396 0)
(51.0779 -0.00584926 0)
(51.0794 -0.00704772 0)
(51.0818 -0.0078445 0)
(51.0621 -0.00896843 0)
(51.064 -0.00354648 0)
(51.0679 -0.000643636 0)
(51.0747 0.000948526 0)
(51.0776 0.000170748 0)
(51.0776 0.00258672 0)
(51.0775 0.00288463 0)
(51.0767 0.00382387 0)
(51.0756 0.00315944 0)
(51.0748 0.00230052 0)
(51.0742 0.000529939 0)
(51.0743 -0.00129334 0)
(51.075 -0.00331993 0)
(51.0761 -0.00504401 0)
(51.0777 -0.00655704 0)
(51.0793 -0.00764711 0)
(51.0818 -0.00839537 0)
(51.0615 -0.0100249 0)
(51.065 -0.00469921 0)
(51.0687 0.000558052 0)
(51.0753 0.00276504 0)
(51.0786 0.00105827 0)
(51.0787 0.00331482 0)
(51.0786 0.00359172 0)
(51.0775 0.0047302 0)
(51.0761 0.00436293 0)
(51.0749 0.0037267 0)
(51.0738 0.00205509 0)
(51.0734 0.000188993 0)
(51.0737 -0.0020005 0)
(51.0745 -0.00397747 0)
(51.0758 -0.00577785 0)
(51.0775 -0.00718141 0)
(51.0792 -0.00826699 0)
(51.0817 -0.00886725 0)
(51.0609 -0.00942056 0)
(51.0663 -0.00510007 0)
(51.0699 0.00148532 0)
(51.0757 0.00474947 0)
(51.0794 0.00209109 0)
(51.0798 0.00410879 0)
(51.0797 0.00434731 0)
(51.0786 0.00566777 0)
(51.0769 0.00561451 0)
(51.0752 0.00524898 0)
(51.0737 0.00373634 0)
(51.0727 0.00188153 0)
(51.0725 -0.000433291 0)
(51.073 -0.00264622 0)
(51.074 -0.00472914 0)
(51.0754 -0.00643763 0)
(51.0772 -0.00782526 0)
(51.079 -0.00882075 0)
(51.0816 -0.0093271 0)
(51.0604 -0.0072407 0)
(51.0678 -0.00453595 0)
(51.0715 0.00181936 0)
(51.0761 0.00628307 0)
(51.0799 0.00301513 0)
(51.0807 0.00480021 0)
(51.0808 0.00507754 0)
(51.0798 0.00659867 0)
(51.078 0.00689076 0)
(51.0759 0.00685133 0)
(51.0739 0.00556427 0)
(51.0724 0.00378213 0)
(51.0715 0.00138867 0)
(51.0716 -0.00103792 0)
(51.0723 -0.00340774 0)
(51.0735 -0.00541772 0)
(51.0751 -0.00712246 0)
(51.077 -0.00840183 0)
(51.0789 -0.00937221 0)
(51.0816 -0.00972009 0)
(51.0602 -0.00395852 0)
(51.069 -0.00303833 0)
(51.0731 0.0013836 0)
(51.0763 0.00679917 0)
(51.0801 0.0035728 0)
(51.0814 0.00521956 0)
(51.0818 0.00568679 0)
(51.081 0.00746442 0)
(51.0792 0.00815193 0)
(51.0769 0.0085041 0)
(51.0744 0.00752117 0)
(51.0723 0.00588478 0)
(51.0709 0.00347074 0)
(51.0704 0.000864772 0)
(51.0707 -0.00179141 0)
(51.0716 -0.00412424 0)
(51.073 -0.00613968 0)
(51.0748 -0.00774747 0)
(51.0768 -0.00896859 0)
(51.0787 -0.00987358 0)
(51.0814 -0.0100834 0)
(51.0602 -0.000333829 0)
(51.0698 -0.000911284 0)
(51.0744 0.000203489 0)
(51.0765 0.00595971 0)
(51.0799 0.00356913 0)
(51.0819 0.00524093 0)
(51.0827 0.0060798 0)
(51.0823 0.00819159 0)
(51.0806 0.00933865 0)
(51.0781 0.0101607 0)
(51.0752 0.0095759 0)
(51.0726 0.00817423 0)
(51.0705 0.00581293 0)
(51.0694 0.00307736 0)
(51.0692 0.000148225 0)
(51.0698 -0.00252719 0)
(51.071 -0.00488915 0)
(51.0726 -0.00680952 0)
(51.0744 -0.0083643 0)
(51.0766 -0.00947747 0)
(51.0786 -0.0103611 0)
(51.0813 -0.010385 0)
(51.0604 0.00277404 0)
(51.0701 0.00132701 0)
(51.0753 -0.00150073 0)
(51.0766 0.00377135 0)
(51.0796 0.00292076 0)
(51.0824 0.00481185 0)
(51.0835 0.006183 0)
(51.0835 0.00870837 0)
(51.082 0.010382 0)
(51.0795 0.0117569 0)
(51.0764 0.011678 0)
(51.0732 0.0106213 0)
(51.0705 0.00840627 0)
(51.0687 0.00560863 0)
(51.0679 0.00243879 0)
(51.0681 -0.000588597 0)
(51.069 -0.00333316 0)
(51.0704 -0.00561507 0)
(51.0722 -0.00747472 0)
(51.0742 -0.00892531 0)
(51.0764 -0.00996414 0)
(51.0784 -0.0108026 0)
(51.0811 -0.010652 0)
(51.0607 0.00462316 0)
(51.0698 0.00306909 0)
(51.0755 -0.00336791 0)
(51.0767 0.000613717 0)
(51.0793 0.0016794 0)
(51.0827 0.0039666 0)
(51.0843 0.00596287 0)
(51.0848 0.00895677 0)
(51.0836 0.0112098 0)
(51.0812 0.013216 0)
(51.0778 0.0137584 0)
(51.0742 0.0131773 0)
(51.0708 0.0112269 0)
(51.0683 0.00845739 0)
(51.0668 0.00510093 0)
(51.0665 0.00173137 0)
(51.067 -0.00142524 0)
(51.0682 -0.00411856 0)
(51.0699 -0.00634641 0)
(51.0718 -0.00808527 0)
(51.074 -0.00946622 0)
(51.0762 -0.0103958 0)
(51.0783 -0.0112268 0)
(51.0809 -0.0108683 0)
(51.061 0.00479299 0)
(51.0691 0.0037982 0)
(51.0751 -0.00499609 0)
(51.0768 -0.00284029 0)
(51.0792 2.36772e-05 0)
(51.083 0.00281615 0)
(51.0851 0.00543283 0)
(51.0861 0.00890754 0)
(51.0853 0.0117643 0)
(51.083 0.0144598 0)
(51.0795 0.0157326 0)
(51.0756 0.0157712 0)
(51.0716 0.0142312 0)
(51.0683 0.0116086 0)
(51.066 0.00814517 0)
(51.065 0.00446519 0)
(51.0651 0.000885187 0)
(51.066 -0.00226574 0)
(51.0675 -0.00492467 0)
(51.0694 -0.00703031 0)
(51.0715 -0.00867598 0)
(51.0737 -0.00995683 0)
(51.076 -0.0107969 0)
(51.0781 -0.0116188 0)
(51.0808 -0.0110518 0)
(51.0612 0.00330472 0)
(51.0683 0.00325827 0)
(51.0743 -0.00604649 0)
(51.0769 -0.00579917 0)
(51.0792 -0.00177796 0)
(51.0834 0.00152499 0)
(51.0859 0.00465349 0)
(51.0873 0.0085662 0)
(51.0869 0.0120103 0)
(51.085 0.0154199 0)
(51.0815 0.0175112 0)
(51.0773 0.0183141 0)
(51.0727 0.0173516 0)
(51.0686 0.0150268 0)
(51.0656 0.0115689 0)
(51.0638 0.00763643 0)
(51.0633 0.00364137 0)
(51.0638 3.72907e-06 0)
(51.0651 -0.00314739 0)
(51.0669 -0.00569609 0)
(51.069 -0.00769818 0)
(51.0713 -0.00921792 0)
(51.0735 -0.0104172 0)
(51.0758 -0.0111525 0)
(51.0779 -0.0119963 0)
(51.0806 -0.0111932 0)
(51.0612 0.000627677 0)
(51.0675 0.00156437 0)
(51.0734 -0.0063367 0)
(51.0771 -0.00757773 0)
(51.0796 -0.00342497 0)
(51.0839 0.000275466 0)
(51.0868 0.00372041 0)
(51.0886 0.00797549 0)
(51.0886 0.0119472 0)
(51.087 0.0160525 0)
(51.0837 0.019013 0)
(51.0793 0.0207068 0)
(51.0743 0.0204986 0)
(51.0695 0.0186522 0)
(51.0655 0.0153501 0)
(51.0629 0.0112582 0)
(51.0617 0.00687862 0)
(51.0617 0.00274065 0)
(51.0626 -0.000944803 0)
(51.0643 -0.00401226 0)
(51.0664 -0.00645745 0)
(51.0687 -0.00832185 0)
(51.071 -0.00972789 0)
(51.0733 -0.010832 0)
(51.0755 -0.0114795 0)
(51.0777 -0.0123489 0)
(51.0804 -0.011305 0)
(51.0611 -0.002455 0)
(51.0669 -0.000806434 0)
(51.0726 -0.00588486 0)
(51.0772 -0.00780913 0)
(51.0801 -0.00465257 0)
(51.0844 -0.000767266 0)
(51.0876 0.00274892 0)
(51.0898 0.00720828 0)
(51.0903 0.0116065 0)
(51.0891 0.0163443 0)
(51.0861 0.0201778 0)
(51.0817 0.0228539 0)
(51.0763 0.0235682 0)
(51.0708 0.0224005 0)
(51.0659 0.0194415 0)
(51.0624 0.0153263 0)
(51.0603 0.0106259 0)
(51.0597 0.00598915 0)
(51.0602 0.00174015 0)
(51.0616 -0.0018985 0)
(51.0635 -0.00487579 0)
(51.0659 -0.00717976 0)
(51.0684 -0.00891544 0)
(51.0708 -0.0101881 0)
(51.0731 -0.0112165 0)
(51.0753 -0.0117683 0)
(51.0775 -0.0126887 0)
(51.0801 -0.0113826 0)
(51.0608 -0.0050742 0)
(51.0665 -0.00315216 0)
(51.072 -0.00490492 0)
(51.0773 -0.00657061 0)
(51.0808 -0.00529317 0)
(51.085 -0.00148879 0)
(51.0885 0.0018507 0)
(51.091 0.00635643 0)
(51.0919 0.0110512 0)
(51.0913 0.0163179 0)
(51.0886 0.0209762 0)
(51.0843 0.0246762 0)
(51.0787 0.0264528 0)
(51.0726 0.0261682 0)
(51.0668 0.0237693 0)
(51.0623 0.019812 0)
(51.0593 0.0148991 0)
(51.0579 0.00979189 0)
(51.0578 0.00495627 0)
(51.0588 0.000706595 0)
(51.0606 -0.00286347 0)
(51.0629 -0.00570585 0)
(51.0655 -0.00787536 0)
(51.0681 -0.00945859 0)
(51.0705 -0.0106134 0)
(51.0728 -0.0115626 0)
(51.075 -0.0120309 0)
(51.0773 -0.0130087 0)
(51.0799 -0.0114356 0)
(51.0605 -0.00653794 0)
(51.0665 -0.00477448 0)
(51.0718 -0.00374035 0)
(51.0774 -0.00437628 0)
(51.0813 -0.00531907 0)
(51.0856 -0.00184711 0)
(51.0893 0.00111385 0)
(51.0921 0.00551327 0)
(51.0935 0.0103603 0)
(51.0934 0.0160247 0)
(51.0912 0.0214137 0)
(51.0872 0.0261229 0)
(51.0815 0.0290563 0)
(51.0749 0.0298425 0)
(51.0683 0.0282356 0)
(51.0626 0.0246585 0)
(51.0586 0.0196924 0)
(51.0563 0.0141844 0)
(51.0555 0.00875597 0)
(51.0561 0.00385409 0)
(51.0576 -0.000356589 0)
(51.0598 -0.00380105 0)
(51.0624 -0.00651372 0)
(51.0652 -0.00852197 0)
(51.0678 -0.00996494 0)
(51.0703 -0.0109957 0)
(51.0725 -0.0118808 0)
(51.0747 -0.0122628 0)
(51.077 -0.0133174 0)
(51.0796 -0.0114614 0)
(51.0603 -0.00654457 0)
(51.0666 -0.00521815 0)
(51.0719 -0.00276831 0)
(51.0773 -0.00201953 0)
(51.0817 -0.00485059 0)
(51.0861 -0.00188298 0)
(51.09 0.000582485 0)
(51.0931 0.00475625 0)
(51.095 0.00961838 0)
(51.0955 0.0155372 0)
(51.0939 0.0215273 0)
(51.0902 0.0271768 0)
(51.0846 0.0313033 0)
(51.0777 0.0333127 0)
(51.0703 0.0327269 0)
(51.0636 0.0297809 0)
(51.0583 0.0249717 0)
(51.055 0.0191861 0)
(51.0534 0.0131916 0)
(51.0534 0.00760216 0)
(51.0546 0.00269389 0)
(51.0565 -0.0014027 0)
(51.0591 -0.00472165 0)
(51.0619 -0.00727603 0)
(51.0648 -0.00913088 0)
(51.0676 -0.0104262 0)
(51.07 -0.0113455 0)
(51.0723 -0.0121671 0)
(51.0744 -0.0124732 0)
(51.0767 -0.0136088 0)
(51.0793 -0.0114673 0)
(51.0601 -0.00525515 0)
(51.0668 -0.00444336 0)
(51.0721 -0.00229039 0)
(51.0773 -0.00032131 0)
(51.0819 -0.00412576 0)
(51.0866 -0.00171067 0)
(51.0906 0.000248201 0)
(51.0941 0.00413037 0)
(51.0964 0.00889579 0)
(51.0975 0.0149328 0)
(51.0965 0.0213771 0)
(51.0934 0.0278543 0)
(51.088 0.0331507 0)
(51.081 0.0364841 0)
(51.073 0.0371243 0)
(51.0652 0.0350715 0)
(51.0587 0.0306723 0)
(51.0541 0.0247902 0)
(51.0515 0.0183061 0)
(51.0507 0.012016 0)
(51.0515 0.00634833 0)
(51.0532 0.00153193 0)
(51.0556 -0.00243825 0)
(51.0585 -0.00560025 0)
(51.0615 -0.00800038 0)
(51.0645 -0.00969309 0)
(51.0673 -0.0108519 0)
(51.0697 -0.0116582 0)
(51.0719 -0.0124297 0)
(51.074 -0.012659 0)
(51.0764 -0.0138884 0)
(51.0789 -0.0114521 0)
(51.06 -0.00321531 0)
(51.067 -0.00282987 0)
(51.0724 -0.00245148 0)
(51.0772 0.000140696 0)
(51.082 -0.00343426 0)
(51.087 -0.00149216 0)
(51.0912 5.03467e-05 0)
(51.095 0.00363907 0)
(51.0977 0.00823861 0)
(51.0994 0.014281 0)
(51.0991 0.0210333 0)
(51.0966 0.0281981 0)
(51.0917 0.0345864 0)
(51.0846 0.0392837 0)
(51.0762 0.0413148 0)
(51.0675 0.04041 0)
(51.0597 0.0367013 0)
(51.0537 0.0309589 0)
(51.0499 0.0241219 0)
(51.0482 0.0171591 0)
(51.0484 0.0106816 0)
(51.0497 0.00506029 0)
(51.052 0.000369044 0)
(51.0548 -0.00343672 0)
(51.0579 -0.00644068 0)
(51.0611 -0.00867656 0)
(51.0643 -0.0102171 0)
(51.0671 -0.0112369 0)
(51.0694 -0.0119426 0)
(51.0716 -0.0126667 0)
(51.0736 -0.012826 0)
(51.0761 -0.0141513 0)
(51.0785 -0.0114226 0)
(51.06 -0.00115274 0)
(51.0671 -0.00103508 0)
(51.0726 -0.00320742 0)
(51.0772 -0.000774867 0)
(51.0819 -0.0030364 0)
(51.0873 -0.00139509 0)
(51.0916 -0.00010606 0)
(51.0957 0.00324408 0)
(51.099 0.00765739 0)
(51.1011 0.0136283 0)
(51.1015 0.0205614 0)
(51.0998 0.0282661 0)
(51.0954 0.0356282 0)
(51.0887 0.0416691 0)
(51.08 0.0452012 0)
(51.0705 0.0456716 0)
(51.0614 0.0429449 0)
(51.0539 0.0376231 0)
(51.0488 0.0306322 0)
(51.046 0.0230804 0)
(51.0453 0.0157757 0)
(51.0462 0.00926367 0)
(51.0482 0.00375074 0)
(51.0509 -0.000764774 0)
(51.0541 -0.00439676 0)
(51.0574 -0.00722986 0)
(51.0608 -0.00931174 0)
(51.064 -0.0106972 0)
(51.0668 -0.0115891 0)
(51.0691 -0.0121971 0)
(51.0712 -0.0128837 0)
(51.0732 -0.0129731 0)
(51.0757 -0.0144023 0)
(51.078 -0.0113789 0)
(51.06 0.000298685 0)
(51.0671 0.000243752 0)
(51.0726 -0.00435325 0)
(51.0771 -0.00274802 0)
(51.0818 -0.00308581 0)
(51.0874 -0.00154809 0)
(51.092 -0.000324344 0)
(51.0964 0.0028779 0)
(51.1 0.00712969 0)
(51.1028 0.0129933 0)
(51.1039 0.0200107 0)
(51.1029 0.0281176 0)
(51.0993 0.0363127 0)
(51.093 0.0436234 0)
(51.0843 0.0487076 0)
(51.0741 0.0507386 0)
(51.0639 0.0492769 0)
(51.0549 0.0446863 0)
(51.0482 0.0377987 0)
(51.044 0.029804 0)
(51.0423 0.0217042 0)
(51.0426 0.0142406 0)
(51.0443 0.00779035 0)
(51.0469 0.00245561 0)
(51.05 -0.00186247 0)
(51.0534 -0.00530181 0)
(51.0569 -0.007974 0)
(51.0604 -0.0099003 0)
(51.0637 -0.0111406 0)
(51.0665 -0.0119072 0)
(51.0687 -0.012428 0)
(51.0709 -0.0130799 0)
(51.0728 -0.0131052 0)
(51.0753 -0.0146376 0)
(51.0776 -0.0113258 0)
(51.06 0.000797654 0)
(51.0669 0.000559488 0)
(51.0725 -0.00559732 0)
(51.0771 -0.00513127 0)
(51.0817 -0.00359169 0)
(51.0876 -0.00200126 0)
(51.0923 -0.00068354 0)
(51.097 0.0024646 0)
(51.101 0.00660714 0)
(51.1043 0.0123642 0)
(51.1061 0.0194063 0)
(51.106 0.0278008 0)
(51.1032 0.0366853 0)
(51.0975 0.0451547 0)
(51.089 0.0517833 0)
(51.0785 0.0555064 0)
(51.0672 0.0555666 0)
(51.0567 0.0520311 0)
(51.0483 0.0455531 0)
(51.0425 0.0373256 0)
(51.0395 0.0285207 0)
(51.0389 0.0200879 0)
(51.0401 0.0125999 0)
(51.0426 0.00630744 0)
(51.0457 0.00118882 0)
(51.0492 -0.00290271 0)
(51.0528 -0.00615584 0)
(51.0565 -0.00866714 0)
(51.0601 -0.010448 0)
(51.0634 -0.0115453 0)
(51.0661 -0.0121973 0)
(51.0683 -0.0126351 0)
(51.0704 -0.0132601 0)
(51.0723 -0.0132212 0)
(51.0749 -0.0148607 0)
(51.0772 -0.0112634 0)
(51.06 0.000374355 0)
(51.0667 -0.000145574 0)
(51.0722 -0.00665999 0)
(51.0771 -0.0071905 0)
(51.0817 -0.00442493 0)
(51.0877 -0.00271305 0)
(51.0926 -0.00121283 0)
(51.0975 0.00194473 0)
(51.1019 0.0060343 0)
(51.1057 0.0117091 0)
(51.1081 0.0187486 0)
(51.1089 0.0273456 0)
(51.107 0.0367871 0)
(51.1021 0.0462825 0)
(51.094 0.054399 0)
(51.0834 0.059889 0)
(51.0714 0.0616883 0)
(51.0594 0.0595264 0)
(51.0492 0.0537994 0)
(51.0417 0.0456118 0)
(51.0371 0.0362543 0)
(51.0354 0.0268871 0)
(51.0359 0.0182963 0)
(51.038 0.0109131 0)
(51.0411 0.00483639 0)
(51.0447 -2.3099e-05 0)
(51.0484 -0.00388589 0)
(51.0522 -0.00695259 0)
(51.056 -0.00931463 0)
(51.0597 -0.0109528 0)
(51.063 -0.0119174 0)
(51.0658 -0.012459 0)
(51.0679 -0.0128237 0)
(51.07 -0.0134229 0)
(51.0719 -0.013324 0)
(51.0745 -0.015069 0)
(51.0768 -0.0111963 0)
(51.0599 -0.000621479 0)
(51.0665 -0.00152967 0)
(51.0719 -0.00735398 0)
(51.0771 -0.00839596 0)
(51.0818 -0.0053699 0)
(51.0877 -0.00356348 0)
(51.0928 -0.00188168 0)
(51.098 0.00129671 0)
(51.1027 0.00536649 0)
(51.1069 0.0109881 0)
(51.11 0.0180196 0)
(51.1116 0.026761 0)
(51.1107 0.0366486 0)
(51.1067 0.0470339 0)
(51.0993 0.0565448 0)
(51.0889 0.0638202 0)
(51.0763 0.0675253 0)
(51.0631 0.0670338 0)
(51.0511 0.0624187 0)
(51.0415 0.0545997 0)
(51.0352 0.0449087 0)
(51.0321 0.0346988 0)
(51.0316 0.0249851 0)
(51.0332 0.0164059 0)
(51.0361 0.00921149 0)
(51.0398 0.00341056 0)
(51.0438 -0.00117476 0)
(51.0477 -0.00480417 0)
(51.0517 -0.00769688 0)
(51.0556 -0.00991368 0)
(51.0593 -0.0114201 0)
(51.0627 -0.012256 0)
(51.0654 -0.0126974 0)
(51.0675 -0.0129929 0)
(51.0696 -0.0135717 0)
(51.0714 -0.013414 0)
(51.0742 -0.0152663 0)
(51.0766 -0.0111241 0)
(51.0598 -0.00173478 0)
(51.0663 -0.0029723 0)
(51.0717 -0.00762206 0)
(51.0771 -0.00857955 0)
(51.0819 -0.00620638 0)
(51.0878 -0.00439308 0)
(51.093 -0.00261107 0)
(51.0983 0.000544529 0)
(51.1033 0.00458934 0)
(51.108 0.010172 0)
(51.1118 0.0171958 0)
(51.1141 0.0260412 0)
(51.1142 0.0362852 0)
(51.1112 0.0474313 0)
(51.1047 0.0582203 0)
(51.0947 0.067252 0)
(51.0819 0.0729749 0)
(51.0677 0.0744144 0)
(51.0539 0.071274 0)
(51.0423 0.0641972 0)
(51.034 0.0544593 0)
(51.0291 0.0435628 0)
(51.0274 0.032755 0)
(51.0282 0.0229111 0)
(51.0308 0.014461 0)
(51.0345 0.00753635 0)
(51.0387 0.00204233 0)
(51.043 -0.00225529 0)
(51.0471 -0.00566143 0)
(51.0511 -0.00838539 0)
(51.0551 -0.0104702 0)
(51.0589 -0.0118487 0)
(51.0623 -0.012566 0)
(51.065 -0.0129125 0)
(51.0671 -0.0131466 0)
(51.0692 -0.0137061 0)
(51.0711 -0.0134946 0)
(51.074 -0.0154501 0)
(51.0765 -0.0110501 0)
(51.0597 -0.00260595 0)
(51.0662 -0.00387136 0)
(51.0715 -0.00752611 0)
(51.0772 -0.0079606 0)
(51.0821 -0.00678119 0)
(51.0879 -0.00505841 0)
(51.0931 -0.00329938 0)
(51.0987 -0.000249523 0)
(51.1039 0.00372418 0)
(51.109 0.00925473 0)
(51.1133 0.0162613 0)
(51.1165 0.0251761 0)
(51.1175 0.0357025 0)
(51.1157 0.0474933 0)
(51.1102 0.0594333 0)
(51.1009 0.070151 0)
(51.0881 0.0779491 0)
(51.0732 0.0815335 0)
(51.0579 0.080215 0)
(51.0442 0.0742852 0)
(51.0336 0.0648509 0)
(51.0267 0.0534931 0)
(51.0234 0.041678 0)
(51.0232 0.0305391 0)
(51.0252 0.0207255 0)
(51.0288 0.0125133 0)
(51.0331 0.00590918 0)
(51.0377 0.000748451 0)
(51.0422 -0.00326618 0)
(51.0465 -0.00645351 0)
(51.0506 -0.0090246 0)
(51.0547 -0.0109822 0)
(51.0585 -0.012243 0)
(51.0619 -0.0128475 0)
(51.0646 -0.0131078 0)
(51.0667 -0.0132847 0)
(51.0688 -0.0138298 0)
(51.0708 -0.0135653 0)
(51.0739 -0.0156229 0)
(51.0766 -0.0109699 0)
(51.0596 -0.00309749 0)
(51.0661 -0.00386246 0)
(51.0715 -0.00718906 0)
(51.0772 -0.00703501 0)
(51.0822 -0.00704732 0)
(51.088 -0.00547674 0)
(51.0933 -0.00386131 0)
(51.099 -0.00100538 0)
(51.1045 0.00282457 0)
(51.1099 0.00826061 0)
(51.1148 0.0152203 0)
(51.1186 0.0241629 0)
(51.1206 0.0349031 0)
(51.1199 0.0472318 0)
(51.1156 0.060192 0)
(51.1072 0.072496 0)
(51.0949 0.0823738 0)
(51.0795 0.088264 0)
(51.0629 0.0890844 0)
(51.0472 0.0847184 0)
(51.0342 0.0759953 0)
(51.0249 0.0644746 0)
(51.0198 0.0518054 0)
(51.0182 0.0393897 0)
(51.0194 0.0281325 0)
(51.0226 0.0184947 0)
(51.027 0.0105952 0)
(51.0319 0.00435455 0)
(51.0368 -0.000469196 0)
(51.0415 -0.00420218 0)
(51.0458 -0.0071872 0)
(51.0501 -0.0096126 0)
(51.0542 -0.0114546 0)
(51.0581 -0.0126032 0)
(51.0615 -0.0131046 0)
(51.0642 -0.0132838 0)
(51.0664 -0.0134111 0)
(51.0686 -0.0139416 0)
(51.0707 -0.0136285 0)
(51.074 -0.015782 0)
(51.0769 -0.0108989 0)
(51.0596 -0.00333515 0)
(51.066 -0.00292391 0)
(51.0714 -0.00673014 0)
(51.0772 -0.00630551 0)
(51.0822 -0.00706562 0)
(51.0881 -0.00564672 0)
(51.0935 -0.00425468 0)
(51.0993 -0.00165486 0)
(51.105 0.00195892 0)
(51.1107 0.007238 0)
(51.116 0.014101 0)
(51.1206 0.0230168 0)
(51.1236 0.0338976 0)
(51.124 0.0466616 0)
(51.1209 0.0605094 0)
(51.1137 0.0742757 0)
(51.102 0.0861896 0)
(51.0866 0.0944881 0)
(51.069 0.0977206 0)
(51.0514 0.0953299 0)
(51.0359 0.087769 0)
(51.0241 0.0764587 0)
(51.0167 0.0631634 0)
(51.0134 0.0495465 0)
(51.0134 0.0368025 0)
(51.016 0.0256199 0)
(51.0203 0.0162643 0)
(51.0254 0.00874155 0)
(51.0308 0.00288 0)
(51.0359 -0.00160247 0)
(51.0408 -0.00506922 0)
(51.0453 -0.00786099 0)
(51.0496 -0.0101548 0)
(51.0537 -0.0118869 0)
(51.0577 -0.0129337 0)
(51.0611 -0.0133377 0)
(51.0639 -0.0134439 0)
(51.0661 -0.0135248 0)
(51.0685 -0.0140452 0)
(51.0708 -0.0136826 0)
(51.0744 -0.0159323 0)
(51.0691 -0.0108482 0)
(51.0596 -0.0035729 0)
(51.0659 -0.00141075 0)
(51.0714 -0.00621938 0)
(51.0772 -0.0060805 0)
(51.0823 -0.00694757 0)
(51.0882 -0.0056435 0)
(51.0936 -0.00449186 0)
(51.0995 -0.00216362 0)
(51.1054 0.00118763 0)
(51.1114 0.00624746 0)
(51.1172 0.012951 0)
(51.1224 0.0217734 0)
(51.1263 0.032712 0)
(51.1278 0.0458033 0)
(51.1261 0.0604024 0)
(51.1201 0.0754889 0)
(51.1094 0.0893519 0)
(51.0943 0.100102 0)
(51.0761 0.105965 0)
(51.0569 0.105936 0)
(51.039 0.100015 0)
(51.0245 0.0893569 0)
(51.0144 0.0757476 0)
(51.009 0.0610751 0)
(51.0075 0.0468455 0)
(51.0092 0.0340248 0)
(51.0131 0.0230637 0)
(51.0183 0.0140813 0)
(51.024 0.00696757 0)
(51.0297 0.0014976 0)
(51.0351 -0.00265589 0)
(51.0401 -0.0058665 0)
(51.0447 -0.00848117 0)
(51.049 -0.0106506 0)
(51.0533 -0.0122842 0)
(51.0573 -0.0132347 0)
(51.0608 -0.0135504 0)
(51.0637 -0.0135883 0)
(51.0661 -0.0136305 0)
(51.0686 -0.0141383 0)
(51.0711 -0.0137326 0)
(51.0767 -0.0160796 0)
(51.0002 -0.0104965 0)
(51.0595 -0.00404379 0)
(51.0659 0.000149377 0)
(51.0713 -0.00566758 0)
(51.0772 -0.00637467 0)
(51.0823 -0.0067991 0)
(51.0882 -0.00557349 0)
(51.0938 -0.00463234 0)
(51.0998 -0.00253991 0)
(51.1058 0.000543015 0)
(51.1121 0.00534003 0)
(51.1183 0.0118253 0)
(51.1241 0.0204842 0)
(51.1287 0.0313904 0)
(51.1314 0.0446938 0)
(51.131 0.0599006 0)
(51.1264 0.0761477 0)
(51.1169 0.0918331 0)
(51.1025 0.105017 0)
(51.0841 0.113665 0)
(51.0635 0.116341 0)
(51.0434 0.112543 0)
(51.026 0.10304 0)
(51.0131 0.0895149 0)
(51.0051 0.0740171 0)
(51.0018 0.0583616 0)
(51.0023 0.0438385 0)
(51.0055 0.0311396 0)
(51.0105 0.0205261 0)
(51.0165 0.0119715 0)
(51.0227 0.00529107 0)
(51.0288 0.000206116 0)
(51.0344 -0.00362811 0)
(51.0395 -0.00660082 0)
(51.0441 -0.00904724 0)
(51.0486 -0.011106 0)
(51.0529 -0.0126468 0)
(51.057 -0.0135104 0)
(51.0606 -0.0137431 0)
(51.0636 -0.0137208 0)
(51.0662 -0.0137257 0)
(51.069 -0.0142283 0)
(51.0715 -0.0137949 0)
(51.0606 -0.0160307 0)
(50.8337 -0.00947973 0)
(51.0595 -0.00478389 0)
(51.0659 0.00129525 0)
(51.0712 -0.00506109 0)
(51.0772 -0.00689946 0)
(51.0823 -0.00667597 0)
(51.0883 -0.00553069 0)
(51.0939 -0.00475074 0)
(51.1 -0.00282966 0)
(51.1061 2.20136e-05 0)
(51.1127 0.00454364 0)
(51.1192 0.0107695 0)
(51.1256 0.0192051 0)
(51.131 0.0299898 0)
(51.1347 0.0433839 0)
(51.1356 0.0590465 0)
(51.1325 0.0762799 0)
(51.1245 0.0936262 0)
(51.1111 0.109169 0)
(51.0928 0.120686 0)
(51.0714 0.12635 0)
(51.0492 0.12514 0)
(51.029 0.117336 0)
(51.013 0.104379 0)
(51.0021 0.0883801 0)
(50.9964 0.071435 0)
(50.9953 0.0551881 0)
(50.9976 0.0406341 0)
(51.0023 0.0282284 0)
(51.0083 0.0180463 0)
(51.015 0.00996043 0)
(51.0216 0.00371572 0)
(51.0279 -0.000991757 0)
(51.0337 -0.00452654 0)
(51.0389 -0.00727218 0)
(51.0436 -0.00956555 0)
(51.0481 -0.0115213 0)
(51.0525 -0.0129793 0)
(51.0567 -0.0137612 0)
(51.0605 -0.0139203 0)
(51.0638 -0.01384 0)
(51.0666 -0.0138174 0)
(51.0698 -0.0143081 0)
(51.0653 -0.0139092 0)
(50.9474 -0.0150551 0)
(50.6067 -0.00822623 0)
(51.0596 -0.00565177 0)
(51.0659 0.00170437 0)
(51.0712 -0.00438519 0)
(51.0772 -0.00726203 0)
(51.0823 -0.00656814 0)
(51.0884 -0.00556375 0)
(51.0939 -0.00490502 0)
(51.1001 -0.0030919 0)
(51.1064 -0.000412074 0)
(51.1132 0.00385516 0)
(51.12 0.0098075 0)
(51.1269 0.0179815 0)
(51.1331 0.02857 0)
(51.1378 0.0419377 0)
(51.14 0.0578999 0)
(51.1384 0.0759323 0)
(51.1319 0.0947481 0)
(51.1198 0.112516 0)
(51.1022 0.126912 0)
(51.0803 0.135775 0)
(51.0565 0.137577 0)
(51.0336 0.132034 0)
(51.0142 0.120205 0)
(51.0001 0.104131 0)
(50.9917 0.0861245 0)
(50.9885 0.068194 0)
(50.9895 0.0516934 0)
(50.9935 0.0373368 0)
(50.9994 0.0253469 0)
(51.0063 0.0156601 0)
(51.0136 0.00805855 0)
(51.0206 0.00224723 0)
(51.0271 -0.00210293 0)
(51.0331 -0.00535117 0)
(51.0384 -0.00788685 0)
(51.0432 -0.0100368 0)
(51.0477 -0.0119013 0)
(51.0522 -0.013282 0)
(51.0566 -0.0139917 0)
(51.0607 -0.0140804 0)
(51.0642 -0.0139523 0)
(51.0672 -0.0138971 0)
(51.0703 -0.0144007 0)
(50.9931 -0.0135787 0)
(50.7457 -0.0133479 0)
(50.3456 -0.00699353 0)
(51.0596 -0.00630996 0)
(51.0659 0.00137914 0)
(51.071 -0.00371288 0)
(51.0772 -0.00714766 0)
(51.0823 -0.00643932 0)
(51.0884 -0.00566274 0)
(51.094 -0.00511757 0)
(51.1003 -0.00337292 0)
(51.1067 -0.000809573 0)
(51.1136 0.00324463 0)
(51.1208 0.00893713 0)
(51.1281 0.0168374 0)
(51.135 0.0271801 0)
(51.1407 0.0404202 0)
(51.1441 0.0565303 0)
(51.1441 0.0751695 0)
(51.1392 0.0952407 0)
(51.1286 0.115053 0)
(51.112 0.13226 0)
(51.0901 0.144451 0)
(51.065 0.149623 0)
(51.0397 0.146894 0)
(51.017 0.136809 0)
(50.9993 0.121188 0)
(50.9877 0.102455 0)
(50.982 0.0829616 0)
(50.9813 0.0644659 0)
(50.9843 0.0480099 0)
(50.9899 0.0340241 0)
(50.9969 0.0225451 0)
(51.0046 0.0133869 0)
(51.0123 0.00627647 0)
(51.0196 0.000880319 0)
(51.0264 -0.00312756 0)
(51.0325 -0.00610847 0)
(51.0379 -0.00844598 0)
(51.0427 -0.0104662 0)
(51.0474 -0.0122467 0)
(51.0521 -0.0135597 0)
(51.0567 -0.0142007 0)
(51.0611 -0.0142301 0)
(51.0648 -0.0140496 0)
(51.0683 -0.0139875 0)
(51.0362 -0.0142142 0)
(50.815 -0.0123252 0)
(50.4949 -0.0115609 0)
(50.0688 -0.00585251 0)
(51.0596 -0.0064129 0)
(51.0659 0.000533703 0)
(51.0709 -0.00313842 0)
(51.0772 -0.00646811 0)
(51.0824 -0.00625436 0)
(51.0884 -0.00578678 0)
(51.0941 -0.00536635 0)
(51.1004 -0.00369112 0)
(51.1069 -0.00121256 0)
(51.114 0.00267038 0)
(51.1215 0.00813354 0)
(51.1292 0.015773 0)
(51.1367 0.0258488 0)
(51.1433 0.0388885 0)
(51.1479 0.055012 0)
(51.1494 0.0740689 0)
(51.1463 0.0951688 0)
(51.1374 0.116802 0)
(51.122 0.136684 0)
(51.1006 0.152238 0)
(51.0748 0.161056 0)
(51.0474 0.161654 0)
(51.0215 0.15396 0)
(51.0001 0.139411 0)
(50.9848 0.120405 0)
(50.9761 0.0995723 0)
(50.9732 0.0790956 0)
(50.9748 0.0604158 0)
(50.9798 0.0442425 0)
(50.9867 0.0307643 0)
(50.9947 0.0198537 0)
(51.003 0.0112446 0)
(51.0111 0.00461218 0)
(51.0188 -0.00038486 0)
(51.0258 -0.00407197 0)
(51.032 -0.00679962 0)
(51.0375 -0.00895503 0)
(51.0424 -0.0108548 0)
(51.0472 -0.0125627 0)
(51.0521 -0.0138122 0)
(51.0571 -0.0143951 0)
(51.0617 -0.0143601 0)
(51.0659 -0.0141436 0)
(51.0576 -0.0139763 0)
(50.8934 -0.0130539 0)
(50.5752 -0.0108309 0)
(50.2182 -0.00984836 0)
(49.7885 -0.004849 0)
(51.0596 -0.00579975 0)
(51.066 -0.000526391 0)
(51.0708 -0.00281575 0)
(51.0771 -0.00538685 0)
(51.0824 -0.00603462 0)
(51.0884 -0.00589046 0)
(51.0941 -0.00560569 0)
(51.1005 -0.00402878 0)
(51.1071 -0.00164047 0)
(51.1144 0.00209933 0)
(51.1221 0.00736394 0)
(51.1302 0.0147678 0)
(51.1382 0.0245821 0)
(51.1456 0.0373796 0)
(51.1514 0.05341 0)
(51.1544 0.0727126 0)
(51.153 0.0946142 0)
(51.1459 0.11782 0)
(51.1322 0.140176 0)
(51.1118 0.159041 0)
(51.0857 0.171681 0)
(51.0566 0.176047 0)
(51.0278 0.171388 0)
(51.0026 0.158603 0)
(50.9833 0.139897 0)
(50.971 0.11807 0)
(50.9653 0.0957146 0)
(50.9652 0.0747278 0)
(50.9692 0.0561816 0)
(50.9758 0.0404831 0)
(50.984 0.027603 0)
(50.9928 0.0173004 0)
(51.0016 0.00923629 0)
(51.0101 0.00306686 0)
(51.018 -0.00155461 0)
(51.0252 -0.00493765 0)
(51.0316 -0.00743063 0)
(51.0372 -0.00941567 0)
(51.0422 -0.011208 0)
(51.0472 -0.0128498 0)
(51.0524 -0.0140467 0)
(51.0578 -0.0145665 0)
(51.0627 -0.0144851 0)
(51.065 -0.0142232 0)
(50.9598 -0.0131695 0)
(50.6685 -0.0113257 0)
(50.3016 -0.00936139 0)
(49.9317 -0.00831229 0)
(49.5131 -0.00399557 0)
(51.0595 -0.00458531 0)
(51.0661 -0.00143219 0)
(51.0707 -0.00288434 0)
(51.0771 -0.00427784 0)
(51.0824 -0.00583672 0)
(51.0884 -0.00595788 0)
(51.0941 -0.0057928 0)
(51.1006 -0.00434581 0)
(51.1073 -0.00208176 0)
(51.1147 0.00151713 0)
(51.1226 0.00660379 0)
(51.1311 0.0137944 0)
(51.1396 0.0233657 0)
(51.1478 0.03591 0)
(51.1546 0.0517741 0)
(51.159 0.0711767 0)
(51.1594 0.0936664 0)
(51.1543 0.118184 0)
(51.1424 0.142767 0)
(51.1233 0.164803 0)
(51.0975 0.181335 0)
(51.0674 0.189816 0)
(51.0359 0.188798 0)
(51.007 0.178513 0)
(50.9834 0.160788 0)
(50.967 0.138446 0)
(50.958 0.11443 0)
(50.9556 0.0911205 0)
(50.9581 0.070035 0)
(50.9642 0.0518856 0)
(50.9724 0.036797 0)
(50.9816 0.0245805 0)
(50.9911 0.0148956 0)
(51.0003 0.00736559 0)
(51.0092 0.00163455 0)
(51.0173 -0.00263074 0)
(51.0248 -0.00573094 0)
(51.0313 -0.00800361 0)
(51.037 -0.00983312 0)
(51.0422 -0.0115271 0)
(51.0474 -0.0131157 0)
(51.0531 -0.0142564 0)
(51.0587 -0.0147297 0)
(51.064 -0.0146127 0)
(51.012 -0.0138263 0)
(50.7557 -0.0113964 0)
(50.3995 -0.00961405 0)
(50.0136 -0.00800979 0)
(49.6461 -0.00699259 0)
(49.248 -0.00328627 0)
(51.0595 -0.00294459 0)
(51.066 -0.00207596 0)
(51.0708 -0.00334806 0)
(51.0771 -0.00354446 0)
(51.0824 -0.00575237 0)
(51.0884 -0.00600467 0)
(51.0942 -0.00591044 0)
(51.1006 -0.00460445 0)