/*--------------------------------*- C++ -*----------------------------------*\
  =========                 |
  \\      /  F ield         | OpenFOAM: The Open Source CFD Toolbox
   \\    /   O peration     | Website:  https://openfoam.org
    \\  /    A nd           | Version:  dev
     \\/     M anipulation  |
\*---------------------------------------------------------------------------*/
FoamFile
{
    version     2.0;
    format      ascii;
    class       volScalarField;
    location    "400";
    object      yPlus;
}
// * * * * * * * * * * * * * * * * * * * * * * * * * * * * * * * * * * * * * //

dimensions      [0 0 0 0 0 0 0];

internalField   uniform 0;

boundaryField
{
    inlet-l
    {
        type            calculated;
        value           uniform 0;
    }
    airfoil-l1
    {
        type            calculated;
        value           nonuniform List<scalar> 
71
(
191.515
214.778
249.869
283.683
310.259
327.664
337.98
343.159
344.693
343.715
340.916
337.055
331.696
325.279
318.202
310.733
303.042
295.234
287.367
279.519
271.755
264.092
256.563
249.196
242.017
235.051
228.321
221.84
215.654
209.792
204.291
199.192
194.541
190.377
186.76
183.722
181.287
179.443
178.152
177.364
176.963
176.869
177.045
177.345
177.759
178.13
178.5
178.75
178.877
178.835
178.639
178.202
177.497
176.593
175.449
174.034
172.431
170.588
168.576
166.366
164.043
161.576
159.016
156.386
153.692
150.984
148.265
145.583
142.918
140.412
137.782
)
;
    }
    empty-1
    {
        type            empty;
    }
    empty-2
    {
        type            empty;
    }
    wall-l1
    {
        type            calculated;
        value           nonuniform List<scalar> 
104
(
17.8007
3.58847
7.16225
8.21297
16.4946
17.4706
11.7341
11.4887
13.9269
14.5427
15.0292
13.8397
13.2245
13.4351
12.8628
12.8348
12.5973
12.6477
12.9968
12.7561
12.7252
12.7249
12.7198
12.909
12.8882
12.8044
12.7625
12.6984
12.6898
12.7291
12.7825
12.8258
12.8576
12.8646
12.8571
12.8785
12.9058
12.9374
12.9678
12.9648
12.9386
12.8989
12.8553
12.8258
12.8107
12.8056
12.8051
12.8016
12.7965
12.7924
12.7972
12.8173
12.8552
12.9118
12.9774
13.0362
13.0725
13.084
13.0818
13.0841
13.1076
13.1649
13.2644
13.4096
13.5925
13.7912
13.9723
14.0951
14.1224
14.0339
13.8375
13.5715
13.2972
13.0737
12.9328
12.8679
12.8509
12.8537
12.859
12.8604
12.8594
12.8619
12.8717
12.8898
12.9132
12.9353
12.9526
12.9674
12.986
13.0256
13.1257
13.3472
13.7194
14.1848
14.599
14.8047
14.7025
14.3032
13.7524
13.2883
13.064
13.024
13.0478
13.3023
)
;
    }
    airfoil-l2
    {
        type            calculated;
        value           nonuniform List<scalar> 
104
(
137.429
139.799
141.647
142.98
143.947
144.632
145.095
145.376
145.526
145.572
145.499
145.325
145.083
144.798
144.475
144.123
143.742
143.359
142.954
142.535
142.112
141.685
141.253
140.809
140.363
139.916
139.465
139.011
138.555
138.094
137.626
137.167
136.715
136.252
135.785
135.321
134.859
134.4
133.94
133.475
133.009
132.543
132.077
131.612
131.15
130.686
130.22
129.752
129.287
128.821
128.351
127.881
127.41
126.94
126.468
125.994
125.514
125.035
124.555
124.072
123.582
123.092
122.604
122.102
121.6
121.092
120.578
120.058
119.534
119.011
118.478
117.929
117.376
116.818
116.238
115.662
115.073
114.465
113.846
113.211
112.561
111.885
111.201
110.491
109.752
108.99
108.202
107.376
106.503
105.6
104.65
103.643
102.573
101.432
100.207
98.8823
97.4374
95.8496
94.0841
92.0672
89.7543
86.8665
83.5958
77.3036
)
;
    }
    empty-3
    {
        type            empty;
    }
    empty-4
    {
        type            empty;
    }
    wall-l2
    {
        type            calculated;
        value           nonuniform List<scalar> 
51
(
13.541
14.2583
14.9701
15.2829
15.2197
14.86
14.3937
14.0453
13.852
13.7718
13.7328
13.649
13.5097
13.4383
13.4809
13.5264
13.4792
13.5305
14.0674
14.998
15.7591
15.9169
15.4217
14.7191
14.554
15.0358
15.4316
15.166
14.2904
13.696
14.5304
16.2114
17.5784
18.164
17.9554
17.2298
16.4903
16.227
16.3729
16.4805
16.3092
15.9734
15.8819
16.2062
16.6739
16.8828
16.6015
15.8379
14.876
14.0086
14.0428
)
;
    }
    outlet-l
    {
        type            calculated;
        value           uniform 0;
    }
    empty-5
    {
        type            empty;
    }
    empty-6
    {
        type            empty;
    }
    outlet-h
    {
        type            calculated;
        value           uniform 0;
    }
    wall-h2
    {
        type            calculated;
        value           nonuniform List<scalar> 
51
(
13.5305
13.6085
13.7009
13.7404
13.7786
13.787
13.7873
13.7939
13.8075
13.8474
13.909
13.9809
14.0523
14.1046
14.1331
14.1443
14.1506
14.1663
14.1979
14.2505
14.3254
14.4136
14.4975
14.5593
14.5936
14.611
14.6285
14.6596
14.7104
14.7795
14.8574
14.9268
14.9711
14.9873
14.992
15.05
15.0882
15.1247
15.1432
15.1278
15.0734
14.9868
14.8837
14.78
14.688
14.6137
14.5589
14.5202
14.4952
14.4707
14.4229
)
;
    }
    empty-7
    {
        type            empty;
    }
    empty-8
    {
        type            empty;
    }
    airfoil-h2
    {
        type            calculated;
        value           nonuniform List<scalar> 
104
(
136.083
138.418
140.251
141.584
142.558
143.266
143.754
144.072
144.257
144.348
144.34
144.24
144.071
143.849
143.581
143.287
142.964
142.635
142.28
141.92
141.549
141.168
140.778
140.386
139.985
139.571
139.162
138.746
138.323
137.902
137.475
137.041
136.604
136.177
135.744
135.304
134.858
134.409
133.966
133.516
133.071
132.619
132.166
131.711
131.258
130.804
130.344
129.883
129.421
128.953
128.494
128.019
127.549
127.082
126.608
126.133
125.659
125.18
124.691
124.209
123.716
123.229
122.728
122.228
121.723
121.217
120.705
120.183
119.658
119.129
118.584
118.041
117.487
116.925
116.354
115.769
115.18
114.571
113.952
113.315
112.659
111.992
111.305
110.59
109.854
109.097
108.304
107.478
106.614
105.706
104.75
103.737
102.66
101.515
100.286
98.9579
97.5079
95.9078
94.1214
92.0869
89.7599
86.8588
83.5797
77.2458
)
;
    }
    wall-h1
    {
        type            calculated;
        value           nonuniform List<scalar> 
104
(
4.2677
4.94463
10.0333
13.3705
14.0417
11.8294
11.5252
12.8636
12.6987
12.5642
12.4064
12.484
12.716
12.6116
12.6396
12.638
12.6486
12.7019
12.67
12.6902
12.7127
12.7174
12.7403
12.7456
12.7579
12.7718
12.7806
12.7948
12.8064
12.8183
12.8313
12.8425
12.8544
12.8647
12.8738
12.8823
12.8901
12.8986
12.9071
12.9156
12.9246
12.9322
12.9399
12.9465
12.9536
12.9601
12.9667
12.9732
12.9796
12.9863
12.9926
12.9997
13.0072
13.0148
13.0226
13.0325
13.0425
13.0527
13.0624
13.0725
13.0827
13.0948
13.1097
13.1281
13.148
13.1656
13.1788
13.1865
13.1895
13.1915
13.195
13.2009
13.2091
13.2192
13.2299
13.2406
13.2508
13.2623
13.2766
13.2936
13.3114
13.3272
13.3388
13.3443
13.3468
13.3488
13.3535
13.3613
13.3708
13.3811
13.3899
13.3982
13.4059
13.4146
13.4238
13.4348
13.4462
13.458
13.4692
13.4778
13.4847
13.4925
13.5043
13.5523
)
;
    }
    empty-9
    {
        type            empty;
    }
    empty-10
    {
        type            empty;
    }
    inlet-h
    {
        type            calculated;
        value           uniform 0;
    }
    airfoil-h1
    {
        type            calculated;
        value           nonuniform List<scalar> 
71
(
189.66
210.09
244.606
279.163
307.511
326.898
338.963
345.532
348.107
347.854
345.548
341.908
336.832
330.5
323.358
315.717
307.772
299.653
291.421
283.183
274.995
266.884
258.898
251.069
243.403
235.952
228.733
221.787
215.129
208.798
202.841
197.309
192.246
187.698
183.735
180.383
177.677
175.627
174.183
173.281
172.831
172.726
172.897
173.252
173.754
174.229
174.682
175.043
175.296
175.413
175.325
175.065
174.545
173.793
172.786
171.512
170.032
168.328
166.402
164.311
162.058
159.677
157.191
154.631
152.011
149.345
146.7
144.061
141.462
139.022
136.447
)
;
    }
    empty-11
    {
        type            empty;
    }
    empty-12
    {
        type            empty;
    }
}


// ************************************************************************* //
