/*--------------------------------*- C++ -*----------------------------------*\
  =========                 |
  \\      /  F ield         | OpenFOAM: The Open Source CFD Toolbox
   \\    /   O peration     | Website:  https://openfoam.org
    \\  /    A nd           | Version:  dev
     \\/     M anipulation  |
\*---------------------------------------------------------------------------*/
FoamFile
{
    version     2.0;
    format      ascii;
    class       volScalarField;
    location    "75";
    object      nut;
}
// * * * * * * * * * * * * * * * * * * * * * * * * * * * * * * * * * * * * * //

dimensions      [0 2 -1 0 0 0 0];

internalField   nonuniform List<scalar> 
29380
(
9.11592e-06
9.11409e-06
9.10523e-06
9.11315e-06
9.1048e-06
9.11172e-06
9.11203e-06
9.10461e-06
9.11054e-06
9.10613e-06
9.11081e-06
9.10447e-06
9.10995e-06
9.10557e-06
9.10754e-06
9.10967e-06
9.10439e-06
9.10928e-06
9.10532e-06
9.10676e-06
9.10575e-06
9.10899e-06
9.1043e-06
9.10867e-06
9.10503e-06
9.1064e-06
9.10517e-06
9.10581e-06
9.1084e-06
9.10418e-06
9.1081e-06
9.10478e-06
9.10599e-06
9.10493e-06
9.10521e-06
9.10561e-06
9.10805e-06
9.10406e-06
9.10758e-06
9.10455e-06
9.10562e-06
9.10466e-06
9.10495e-06
9.10508e-06
9.1059e-06
9.10785e-06
9.10396e-06
9.10709e-06
9.10433e-06
9.10527e-06
9.10442e-06
9.10466e-06
9.10485e-06
9.10535e-06
9.10677e-06
9.10743e-06
9.10385e-06
9.10663e-06
9.10413e-06
9.10495e-06
9.1042e-06
9.1044e-06
9.10458e-06
9.10513e-06
9.1062e-06
9.10859e-06
9.10696e-06
9.10375e-06
9.10619e-06
9.10397e-06
9.10465e-06
9.10399e-06
9.10417e-06
9.10435e-06
9.10485e-06
9.10593e-06
9.10794e-06
9.11139e-06
9.10642e-06
9.10364e-06
9.10579e-06
9.10385e-06
9.10437e-06
9.10381e-06
9.10397e-06
9.10415e-06
9.10462e-06
9.10562e-06
9.10758e-06
9.11056e-06
9.11577e-06
9.10594e-06
9.10357e-06
9.10541e-06
9.10373e-06
9.10412e-06
9.10366e-06
9.1038e-06
9.10396e-06
9.10441e-06
9.10536e-06
9.10718e-06
9.11014e-06
9.1147e-06
9.12213e-06
9.10562e-06
9.10352e-06
9.10506e-06
9.10362e-06
9.10393e-06
9.10352e-06
9.10365e-06
9.10379e-06
9.10422e-06
9.10512e-06
9.10682e-06
9.10967e-06
9.11406e-06
9.12064e-06
9.13159e-06
9.10545e-06
9.10347e-06
9.10474e-06
9.10353e-06
9.10375e-06
9.1034e-06
9.10351e-06
9.10364e-06
9.10405e-06
9.10491e-06
9.10651e-06
9.10924e-06
9.11335e-06
9.11974e-06
9.12931e-06
9.14477e-06
9.10525e-06
9.10337e-06
9.10445e-06
9.10345e-06
9.1036e-06
9.1033e-06
9.10337e-06
9.10349e-06
9.10388e-06
9.10471e-06
9.10622e-06
9.10884e-06
9.1127e-06
9.11875e-06
9.12794e-06
9.14115e-06
9.16315e-06
9.10494e-06
9.10323e-06
9.10419e-06
9.10337e-06
9.10346e-06
9.10322e-06
9.10326e-06
9.10336e-06
9.10372e-06
9.10453e-06
9.10596e-06
9.10846e-06
9.11212e-06
9.11781e-06
9.12643e-06
9.13908e-06
9.15785e-06
9.18668e-06
9.10453e-06
9.1031e-06
9.10392e-06
9.10326e-06
9.10334e-06
9.10315e-06
9.10317e-06
9.10325e-06
9.10356e-06
9.10433e-06
9.10571e-06
9.1081e-06
9.11159e-06
9.11691e-06
9.12502e-06
9.13691e-06
9.15459e-06
9.1791e-06
9.2191e-06
9.10412e-06
9.103e-06
9.10362e-06
9.10312e-06
9.10322e-06
9.10308e-06
9.1031e-06
9.10317e-06
9.10341e-06
9.10413e-06
9.10545e-06
9.10774e-06
9.11108e-06
9.11608e-06
9.12368e-06
9.13488e-06
9.1512e-06
9.17509e-06
9.20742e-06
9.26056e-06
9.10382e-06
9.10296e-06
9.10338e-06
9.10297e-06
9.10308e-06
9.10299e-06
9.10304e-06
9.10312e-06
9.1033e-06
9.10393e-06
9.10517e-06
9.10735e-06
9.11057e-06
9.11532e-06
9.12243e-06
9.13294e-06
9.14817e-06
9.17051e-06
9.20101e-06
9.24412e-06
9.31337e-06
9.1037e-06
9.10296e-06
9.10324e-06
9.10286e-06
9.10293e-06
9.10288e-06
9.10296e-06
9.10309e-06
9.10325e-06
9.10378e-06
9.10489e-06
9.10694e-06
9.11001e-06
9.11459e-06
9.12125e-06
9.13111e-06
9.14539e-06
9.16614e-06
9.19408e-06
9.23572e-06
9.29027e-06
9.37827e-06
9.10371e-06
9.10297e-06
9.1032e-06
9.1028e-06
9.10279e-06
9.10276e-06
9.10286e-06
9.10304e-06
9.10323e-06
9.10369e-06
9.10466e-06
9.10651e-06
9.10941e-06
9.11381e-06
9.12009e-06
9.12938e-06
9.1428e-06
9.16192e-06
9.18803e-06
9.22631e-06
9.27864e-06
9.34693e-06
9.45614e-06
9.10372e-06
9.10296e-06
9.10319e-06
9.10281e-06
9.10271e-06
9.10267e-06
9.10275e-06
9.10295e-06
9.1032e-06
9.10365e-06
9.10451e-06
9.10615e-06
9.1088e-06
9.11295e-06
9.11891e-06
9.12769e-06
9.14035e-06
9.15804e-06
9.18259e-06
9.21778e-06
9.26566e-06
9.33145e-06
9.41456e-06
9.54749e-06
9.10359e-06
9.1029e-06
9.10316e-06
9.10285e-06
9.10269e-06
9.10262e-06
9.10265e-06
9.10282e-06
9.10311e-06
9.1036e-06
9.10444e-06
9.10589e-06
9.10827e-06
9.11205e-06
9.11766e-06
9.12595e-06
9.13794e-06
9.15451e-06
9.17768e-06
9.20978e-06
9.25414e-06
9.31409e-06
9.3944e-06
9.49344e-06
9.65216e-06
9.10336e-06
9.10282e-06
9.10306e-06
9.10285e-06
9.10272e-06
9.10263e-06
9.10261e-06
9.10271e-06
9.10298e-06
9.10349e-06
9.10436e-06
9.10574e-06
9.10789e-06
9.11123e-06
9.11638e-06
9.12411e-06
9.13546e-06
9.1512e-06
9.17303e-06
9.20245e-06
9.24354e-06
9.29876e-06
9.37168e-06
9.46771e-06
9.5833e-06
9.76943e-06
9.10317e-06
9.10273e-06
9.10291e-06
9.10281e-06
9.10273e-06
9.10265e-06
9.1026e-06
9.10265e-06
9.10285e-06
9.10333e-06
9.10422e-06
9.10561e-06
9.10764e-06
9.11061e-06
9.11522e-06
9.12224e-06
9.13285e-06
9.14784e-06
9.1684e-06
9.19571e-06
9.23393e-06
9.28469e-06
9.35166e-06
9.43856e-06
9.55106e-06
9.68337e-06
9.89794e-06
9.10311e-06
9.10268e-06
9.10275e-06
9.10272e-06
9.10268e-06
9.10265e-06
9.10262e-06
9.10265e-06
9.10277e-06
9.10316e-06
9.10401e-06
9.10541e-06
9.10744e-06
9.11022e-06
9.11431e-06
9.12055e-06
9.13017e-06
9.14425e-06
9.16361e-06
9.18934e-06
9.22502e-06
9.27202e-06
9.33334e-06
9.41298e-06
9.51437e-06
9.64367e-06
9.79231e-06
1.00358e-05
9.10315e-06
9.10266e-06
9.10265e-06
9.10265e-06
9.10258e-06
9.10261e-06
9.10261e-06
9.10268e-06
9.10276e-06
9.10306e-06
9.10376e-06
9.1051e-06
9.10714e-06
9.10991e-06
9.11368e-06
9.11924e-06
9.12768e-06
9.14051e-06
9.15858e-06
9.18298e-06
9.21637e-06
9.26035e-06
9.31691e-06
9.38957e-06
9.48229e-06
9.59834e-06
9.74429e-06
9.90836e-06
1.01807e-05
9.10319e-06
9.10267e-06
9.10264e-06
9.10263e-06
9.10248e-06
9.10254e-06
9.10257e-06
9.10269e-06
9.10279e-06
9.10303e-06
9.10359e-06
9.10475e-06
9.10668e-06
9.10947e-06
9.11318e-06
9.11833e-06
9.1257e-06
9.137e-06
9.15346e-06
9.17634e-06
9.20747e-06
9.24904e-06
9.30191e-06
9.36863e-06
9.45297e-06
9.55887e-06
9.68923e-06
9.85119e-06
1.00294e-05
1.033e-05
9.10316e-06
9.10267e-06
9.1027e-06
9.10265e-06
9.10245e-06
9.10249e-06
9.10251e-06
9.10265e-06
9.10281e-06
9.10306e-06
9.10351e-06
9.10448e-06
9.10616e-06
9.10882e-06
9.11255e-06
9.1176e-06
9.12434e-06
9.13416e-06
9.14868e-06
9.16948e-06
9.19804e-06
9.23735e-06
9.2875e-06
9.34967e-06
9.42683e-06
9.52285e-06
9.64151e-06
9.78543e-06
9.96239e-06
1.01531e-05
1.04809e-05
9.10307e-06
9.10264e-06
9.10274e-06
9.10269e-06
9.10249e-06
9.10248e-06
9.10246e-06
9.10259e-06
9.10279e-06
9.10308e-06
9.10351e-06
9.10435e-06
9.10574e-06
9.10808e-06
9.11167e-06
9.11673e-06
9.12334e-06
9.13218e-06
9.14476e-06
9.16295e-06
9.1884e-06
9.22481e-06
9.27261e-06
9.33167e-06
9.40331e-06
9.4908e-06
9.59802e-06
9.72866e-06
9.88504e-06
1.00756e-05
1.02769e-05
1.06308e-05
9.103e-06
9.10259e-06
9.10273e-06
9.10272e-06
9.10256e-06
9.10251e-06
9.10245e-06
9.10255e-06
9.10272e-06
9.10303e-06
9.1035e-06
9.10432e-06
9.10552e-06
9.10745e-06
9.11067e-06
9.11554e-06
9.12222e-06
9.13072e-06
9.14194e-06
9.15755e-06
9.17945e-06
9.21174e-06
9.25648e-06
9.31318e-06
9.38121e-06
9.46208e-06
9.55941e-06
9.67702e-06
9.81856e-06
9.98596e-06
1.01887e-05
1.03988e-05
1.07773e-05
9.10297e-06
9.10254e-06
9.10267e-06
9.1027e-06
9.10259e-06
9.10256e-06
9.10248e-06
9.10254e-06
9.10265e-06
9.10294e-06
9.10344e-06
9.10428e-06
9.10544e-06
9.10708e-06
9.1098e-06
9.11418e-06
9.12069e-06
9.1292e-06
9.13987e-06
9.1537e-06
9.1723e-06
9.1994e-06
9.23939e-06
9.29301e-06
9.35863e-06
9.4353e-06
9.52496e-06
9.6313e-06
9.75821e-06
9.90924e-06
1.00861e-05
1.02994e-05
1.05165e-05
1.09182e-05
9.10297e-06
9.10252e-06
9.10261e-06
9.10265e-06
9.10258e-06
9.10259e-06
9.10253e-06
9.10257e-06
9.10262e-06
9.10284e-06
9.10332e-06
9.10417e-06
9.10537e-06
9.10692e-06
9.10923e-06
9.11294e-06
9.11885e-06
9.12717e-06
9.13782e-06
9.15098e-06
9.1674e-06
9.18943e-06
9.22297e-06
9.27121e-06
9.33385e-06
9.40819e-06
9.4931e-06
9.59069e-06
9.70492e-06
9.83976e-06
9.99872e-06
1.01835e-05
1.04059e-05
1.06283e-05
1.10518e-05
9.10298e-06
9.10252e-06
9.10259e-06
9.10262e-06
9.10253e-06
9.10259e-06
9.10257e-06
9.10261e-06
9.10264e-06
9.10279e-06
9.1032e-06
9.10397e-06
9.1052e-06
9.10679e-06
9.1089e-06
9.11204e-06
9.11708e-06
9.12473e-06
9.1352e-06
9.14837e-06
9.1641e-06
9.18277e-06
9.20955e-06
9.24981e-06
9.30667e-06
9.37843e-06
9.46108e-06
9.55342e-06
9.65779e-06
9.77861e-06
9.91983e-06
1.00852e-05
1.02765e-05
1.05066e-05
1.07329e-05
1.11769e-05
9.10298e-06
9.10253e-06
9.10261e-06
9.1026e-06
9.10249e-06
9.10256e-06
9.10257e-06
9.10263e-06
9.10268e-06
9.1028e-06
9.10312e-06
9.10377e-06
9.10492e-06
9.10653e-06
9.10862e-06
9.11146e-06
9.11571e-06
9.12234e-06
9.13205e-06
9.14504e-06
9.16097e-06
9.17875e-06
9.20063e-06
9.23201e-06
9.2795e-06
9.34547e-06
9.42593e-06
9.51622e-06
9.61487e-06
9.72473e-06
9.85063e-06
9.99671e-06
1.01671e-05
1.03635e-05
1.06002e-05
1.08292e-05
1.12923e-05
9.103e-06
9.10254e-06
9.10264e-06
9.10262e-06
9.10249e-06
9.10254e-06
9.10255e-06
9.10262e-06
9.10271e-06
9.10284e-06
9.1031e-06
9.10363e-06
9.10463e-06
9.10615e-06
9.10823e-06
9.11097e-06
9.11475e-06
9.1204e-06
9.1289e-06
9.14099e-06
9.15687e-06
9.17543e-06
9.19561e-06
9.2202e-06
9.25658e-06
9.31192e-06
9.38657e-06
9.47532e-06
9.57228e-06
9.67592e-06
9.78991e-06
9.9194e-06
1.00689e-05
1.02431e-05
1.04436e-05
1.06858e-05
1.09164e-05
1.13972e-05
9.10308e-06
9.10253e-06
9.10268e-06
9.10265e-06
9.10252e-06
9.10255e-06
9.10252e-06
9.10259e-06
9.10271e-06
9.10287e-06
9.1031e-06
9.10357e-06
9.10441e-06
9.10575e-06
9.10774e-06
9.11042e-06
9.11396e-06
9.11894e-06
9.12624e-06
9.13687e-06
9.15173e-06
9.17095e-06
9.19198e-06
9.21399e-06
9.24131e-06
9.28301e-06
9.34584e-06
9.42901e-06
9.52536e-06
9.62774e-06
9.73518e-06
9.85188e-06
9.98352e-06
1.01352e-05
1.03123e-05
1.05159e-05
1.07627e-05
1.09939e-05
1.15184e-05
9.1032e-06
9.10253e-06
9.1027e-06
9.10268e-06
9.10256e-06
9.10258e-06
9.10253e-06
9.10257e-06
9.10269e-06
9.10287e-06
9.10311e-06
9.10354e-06
9.10426e-06
9.10541e-06
9.10723e-06
9.1098e-06
9.11318e-06
9.11773e-06
9.12411e-06
9.13328e-06
9.14638e-06
9.16482e-06
9.18708e-06
9.21021e-06
9.23364e-06
9.26341e-06
9.3101e-06
9.38035e-06
9.47165e-06
9.5746e-06
9.68135e-06
9.79131e-06
9.90933e-06
1.00418e-05
1.01948e-05
1.03738e-05
1.05798e-05
1.08303e-05
1.1088e-05
1.1664e-05
9.10333e-06
9.10253e-06
9.10271e-06
9.10269e-06
9.10259e-06
9.10262e-06
9.10256e-06
9.10259e-06
9.10268e-06
9.10285e-06
9.1031e-06
9.1035e-06
9.10416e-06
9.10516e-06
9.10678e-06
9.10917e-06
9.11238e-06
9.11659e-06
9.1223e-06
9.13031e-06
9.1416e-06
9.15791e-06
9.17985e-06
9.20508e-06
9.22967e-06
9.25369e-06
9.28553e-06
9.33698e-06
9.41439e-06
9.51329e-06
9.62188e-06
9.73188e-06
9.84311e-06
9.96114e-06
1.00936e-05
1.02471e-05
1.04274e-05
1.06349e-05
1.09124e-05
1.11994e-05
1.18326e-05
9.10349e-06
9.10256e-06
9.10273e-06
9.1027e-06
9.10261e-06
9.10265e-06
9.10261e-06
9.10263e-06
9.10269e-06
9.10284e-06
9.10308e-06
9.10346e-06
9.10405e-06
9.10494e-06
9.10637e-06
9.10857e-06
9.11161e-06
9.11553e-06
9.12066e-06
9.12773e-06
9.13754e-06
9.15136e-06
9.17114e-06
9.19679e-06
9.22444e-06
9.24946e-06
9.27354e-06
9.30687e-06
9.36269e-06
9.44714e-06
9.55268e-06
9.66598e-06
9.77822e-06
9.88953e-06
1.00066e-05
1.01382e-05
1.02916e-05
1.04726e-05
1.07026e-05
1.10135e-05
1.13274e-05
1.19986e-05
9.10365e-06
9.10262e-06
9.10276e-06
9.10271e-06
9.10263e-06
9.10266e-06
9.10264e-06
9.10268e-06
9.10272e-06
9.10284e-06
9.10307e-06
9.10343e-06
9.10396e-06
9.10474e-06
9.10596e-06
9.10795e-06
9.11086e-06
9.11462e-06
9.11929e-06
9.12546e-06
9.134e-06
9.14568e-06
9.16246e-06
9.18611e-06
9.21519e-06
9.24443e-06
9.26927e-06
9.2925e-06
9.32658e-06
9.3867e-06
9.47724e-06
9.58867e-06
9.70589e-06
9.81945e-06
9.92986e-06
1.00452e-05
1.01755e-05
1.03283e-05
1.05287e-05
1.07892e-05
1.11188e-05
1.14633e-05
1.21672e-05
9.1038e-06
9.10268e-06
9.1028e-06
9.10273e-06
9.10265e-06
9.10268e-06
9.10266e-06
9.10272e-06
9.10275e-06
9.10286e-06
9.10307e-06
9.10342e-06
9.10391e-06
9.10458e-06
9.10559e-06
9.10728e-06
9.10998e-06
9.11371e-06
9.11822e-06
9.1237e-06
9.13096e-06
9.14086e-06
9.15479e-06
9.17498e-06
9.20249e-06
9.23459e-06
9.26489e-06
9.2885e-06
9.30979e-06
9.34414e-06
9.40764e-06
9.50362e-06
9.62031e-06
9.74084e-06
9.85486e-06
9.9636e-06
1.00767e-05
1.02052e-05
1.03746e-05
1.06022e-05
1.08766e-05
1.12414e-05
1.15979e-05
1.23351e-05
9.10394e-06
9.10274e-06
9.10285e-06
9.10276e-06
9.10269e-06
9.1027e-06
9.10268e-06
9.10274e-06
9.10278e-06
9.10288e-06
9.10306e-06
9.1034e-06
9.10389e-06
9.1045e-06
9.10532e-06
9.10666e-06
9.10896e-06
9.11255e-06
9.11718e-06
9.12248e-06
9.12877e-06
9.13701e-06
9.1484e-06
9.16489e-06
9.18868e-06
9.22007e-06
9.25485e-06
9.28526e-06
9.30644e-06
9.32468e-06
9.35839e-06
9.4246e-06
9.52543e-06
9.64691e-06
9.77016e-06
9.88396e-06
9.99058e-06
1.01011e-05
1.02435e-05
1.04365e-05
1.06793e-05
1.09787e-05
1.13621e-05
1.17329e-05
1.24941e-05
9.10405e-06
9.10279e-06
9.10292e-06
9.1028e-06
9.10273e-06
9.10274e-06
9.1027e-06
9.10275e-06
9.1028e-06
9.1029e-06
9.10305e-06
9.10337e-06
9.10386e-06
9.10448e-06
9.10521e-06
9.10623e-06
9.10796e-06
9.11108e-06
9.11572e-06
9.12133e-06
9.12742e-06
9.13446e-06
9.14359e-06
9.15653e-06
9.17581e-06
9.20351e-06
9.23859e-06
9.27539e-06
9.30489e-06
9.32209e-06
9.33635e-06
9.36862e-06
9.43689e-06
9.54199e-06
9.66793e-06
9.79341e-06
9.9066e-06
1.00108e-05
1.0133e-05
1.02966e-05
1.05043e-05
1.07621e-05
1.10845e-05
1.14789e-05
1.18551e-05
1.26411e-05
9.10413e-06
9.10284e-06
9.103e-06
9.10283e-06
9.10278e-06
9.10278e-06
9.10274e-06
9.10276e-06
9.10282e-06
9.10291e-06
9.10305e-06
9.10331e-06
9.10377e-06
9.10443e-06
9.1052e-06
9.10607e-06
9.10729e-06
9.10958e-06
9.11368e-06
9.11952e-06
9.1262e-06
9.13308e-06
9.14069e-06
9.15048e-06
9.16512e-06
9.18762e-06
9.21905e-06
9.25748e-06
9.29558e-06
9.32271e-06
9.33497e-06
9.34424e-06
9.37429e-06
9.44374e-06
9.55282e-06
9.68296e-06
9.8104e-06
9.9228e-06
1.00377e-05
1.01795e-05
1.03556e-05
1.05739e-05
1.0853e-05
1.11829e-05
1.15882e-05
1.19711e-05
1.27736e-05
9.10418e-06
9.10287e-06
9.1031e-06
9.10286e-06
9.10283e-06
9.10282e-06
9.10278e-06
9.1028e-06
9.10284e-06
9.10293e-06
9.10306e-06
9.10326e-06
9.10365e-06
9.10429e-06
9.10514e-06
9.10609e-06
9.10708e-06
9.10855e-06
9.11153e-06
9.11679e-06
9.124e-06
9.1318e-06
9.13937e-06
9.14719e-06
9.1576e-06
9.17428e-06
9.19974e-06
9.23482e-06
9.27613e-06
9.31457e-06
9.33835e-06
9.34451e-06
9.34788e-06
9.37459e-06
9.44474e-06
9.55764e-06
9.69182e-06
9.82114e-06
9.94499e-06
1.00781e-05
1.02318e-05
1.04177e-05
1.0648e-05
1.09392e-05
1.12782e-05
1.16874e-05
1.20653e-05
1.28786e-05
9.10423e-06
9.10289e-06
9.10317e-06
9.10289e-06
9.10287e-06
9.10286e-06
9.10283e-06
9.10284e-06
9.10287e-06
9.10296e-06
9.10309e-06
9.10325e-06
9.10354e-06
9.10407e-06
9.10494e-06
9.10604e-06
9.10715e-06
9.10824e-06
9.11002e-06
9.1138e-06
9.12043e-06
9.12915e-06
9.13811e-06
9.1461e-06
9.15392e-06
9.16502e-06
9.18342e-06
9.21189e-06
9.25024e-06
9.29399e-06
9.33188e-06
9.35117e-06
9.35023e-06
9.34654e-06
9.36911e-06
9.43968e-06
9.5563e-06
9.69449e-06
9.83724e-06
9.97847e-06
1.01256e-05
1.02864e-05
1.04781e-05
1.07248e-05
1.10189e-05
1.13559e-05
1.17645e-05
1.21413e-05
1.29675e-05
9.10432e-06
9.10291e-06
9.10323e-06
9.10294e-06
9.10291e-06
9.1029e-06
9.10287e-06
9.10289e-06
9.10291e-06
9.10298e-06
9.10311e-06
9.10327e-06
9.10349e-06
9.10388e-06
9.10461e-06
9.10575e-06
9.10714e-06
9.10839e-06
9.10956e-06
9.11167e-06
9.11641e-06
9.12462e-06
9.13499e-06
9.14507e-06
9.15322e-06
9.16077e-06
9.17229e-06
9.1924e-06
9.22349e-06
9.26491e-06
9.3104e-06
9.34679e-06
9.3606e-06
9.35159e-06
9.33984e-06
9.35772e-06
9.42851e-06
9.54878e-06
9.70181e-06
9.86242e-06
1.00208e-05
1.01737e-05
1.03408e-05
1.05425e-05
1.07889e-05
1.10822e-05
1.14233e-05
1.18385e-05
1.22146e-05
1.30515e-05
9.10439e-06
9.10295e-06
9.10329e-06
9.10298e-06
9.10294e-06
9.10293e-06
9.10291e-06
9.10293e-06
9.10295e-06
9.10301e-06
9.10312e-06
9.1033e-06
9.10351e-06
9.10378e-06
9.10429e-06
9.10527e-06
9.10678e-06
9.10846e-06
9.10982e-06
9.11104e-06
9.11353e-06
9.11943e-06
9.12937e-06
9.14153e-06
9.15257e-06
9.16041e-06
9.16754e-06
9.17928e-06
9.20073e-06
9.23421e-06
9.27817e-06
9.32465e-06
9.35864e-06
9.36628e-06
9.34824e-06
9.32765e-06
9.34045e-06
9.41129e-06
9.54518e-06
9.71723e-06
9.89637e-06
1.00634e-05
1.02227e-05
1.03909e-05
1.0597e-05
1.08464e-05
1.11459e-05
1.14914e-05
1.19064e-05
1.22795e-05
1.31294e-05
9.1044e-06
9.103e-06
9.10336e-06
9.10302e-06
9.10295e-06
9.10295e-06
9.10295e-06
9.10296e-06
9.10299e-06
9.10304e-06
9.10314e-06
9.1033e-06
9.10353e-06
9.10379e-06
9.10413e-06
9.10481e-06
9.10611e-06
9.10802e-06
9.11e-06
9.11147e-06
9.11269e-06
9.11566e-06
9.12283e-06
9.13468e-06
9.14864e-06
9.16024e-06
9.16769e-06
9.17398e-06
9.18564e-06
9.20807e-06
9.24348e-06
9.28939e-06
9.33611e-06
9.36719e-06
9.36791e-06
9.34002e-06
9.31006e-06
9.3175e-06
9.3972e-06
9.54941e-06
9.73841e-06
9.93155e-06
1.01043e-05
1.02649e-05
1.04416e-05
1.06534e-05
1.0905e-05
1.12031e-05
1.15426e-05
1.19509e-05
1.23211e-05
1.31941e-05
9.10455e-06
9.10301e-06
9.10344e-06
9.10307e-06
9.10296e-06
9.10297e-06
9.10297e-06
9.103e-06
9.10303e-06
9.10308e-06
9.10316e-06
9.1033e-06
9.10352e-06
9.10381e-06
9.10412e-06
9.10456e-06
9.10545e-06
9.10714e-06
9.1095e-06
9.11181e-06
9.11331e-06
9.11455e-06
9.11805e-06
9.12657e-06
9.14044e-06
9.15604e-06
9.16812e-06
9.1747e-06
9.17994e-06
9.19109e-06
9.21407e-06
9.25087e-06
9.29806e-06
9.34449e-06
9.37211e-06
9.36527e-06
9.327e-06
9.28736e-06
9.29707e-06
9.39095e-06
9.55584e-06
9.76184e-06
9.96242e-06
1.01435e-05
1.03135e-05
1.04966e-05
1.07038e-05
1.09475e-05
1.12346e-05
1.15628e-05
1.1964e-05
1.23355e-05
1.33287e-05
9.10467e-06
9.10309e-06
9.10349e-06
9.10315e-06
9.103e-06
9.10298e-06
9.10299e-06
9.10302e-06
9.10306e-06
9.10311e-06
9.10319e-06
9.10331e-06
9.1035e-06
9.10379e-06
9.10414e-06
9.10452e-06
9.10508e-06
9.10624e-06
9.10836e-06
9.11123e-06
9.11388e-06
9.11536e-06
9.11661e-06
9.12063e-06
9.13061e-06
9.14655e-06
9.16366e-06
9.17584e-06
9.18137e-06
9.18519e-06
9.19545e-06
9.21846e-06
9.25602e-06
9.30379e-06
9.34939e-06
9.37315e-06
9.35834e-06
9.30944e-06
9.26712e-06
9.28454e-06
9.3852e-06
9.56453e-06
9.78207e-06
9.99761e-06
1.0189e-05
1.03623e-05
1.05376e-05
1.07332e-05
1.09628e-05
1.12376e-05
1.15562e-05
1.19589e-05
1.23827e-05
1.51608e-05
9.10485e-06
9.10314e-06
9.10358e-06
9.1032e-06
9.10308e-06
9.103e-06
9.10301e-06
9.10304e-06
9.10308e-06
9.10315e-06
9.10322e-06
9.10333e-06
9.10349e-06
9.10374e-06
9.10411e-06
9.10455e-06
9.105e-06
9.1057e-06
9.10716e-06
9.10977e-06
9.11321e-06
9.11616e-06
9.11764e-06
9.11885e-06
9.12341e-06
9.13495e-06
9.15283e-06
9.17126e-06
9.18334e-06
9.18753e-06
9.1896e-06
9.19855e-06
9.22099e-06
9.25848e-06
9.30618e-06
9.35058e-06
9.37013e-06
9.34714e-06
9.29482e-06
9.25464e-06
9.2725e-06
9.38084e-06
9.57445e-06
9.80789e-06
1.0034e-05
1.02266e-05
1.03952e-05
1.05598e-05
1.07407e-05
1.0958e-05
1.12233e-05
1.15471e-05
1.19937e-05
1.32363e-05
4.15651e-05
9.105e-06
9.10322e-06
9.10362e-06
9.10327e-06
9.10314e-06
9.10305e-06
9.10304e-06
9.10306e-06
9.1031e-06
9.10317e-06
9.10325e-06
9.10336e-06
9.10349e-06
9.10369e-06
9.10402e-06
9.1045e-06
9.10503e-06
9.10557e-06
9.10644e-06
9.10821e-06
9.11139e-06
9.11542e-06
9.1187e-06
9.12015e-06
9.12128e-06
9.12644e-06
9.13944e-06
9.15919e-06
9.17869e-06
9.19042e-06
9.19299e-06
9.19303e-06
9.2002e-06
9.22132e-06
9.25795e-06
9.30497e-06
9.3478e-06
9.3628e-06
9.33929e-06
9.28698e-06
9.243e-06
9.26216e-06
9.38221e-06
9.58617e-06
9.82806e-06
1.00586e-05
1.0253e-05
1.04167e-05
1.05687e-05
1.07379e-05
1.09485e-05
1.12246e-05
1.15812e-05
1.25551e-05
2.84647e-05
0.000178209
9.10514e-06
9.10329e-06
9.10368e-06
9.1033e-06
9.10321e-06
9.10309e-06
9.1031e-06
9.10309e-06
9.10312e-06
9.10318e-06
9.10327e-06
9.10338e-06
9.10351e-06
9.10367e-06
9.10393e-06
9.10437e-06
9.10497e-06
9.1056e-06
9.10624e-06
9.10727e-06
9.10943e-06
9.11323e-06
9.1179e-06
9.12152e-06
9.1229e-06
9.12395e-06
9.12965e-06
9.14406e-06
9.16541e-06
9.18573e-06
9.1968e-06
9.19755e-06
9.19532e-06
9.2002e-06
9.21928e-06
9.25421e-06
9.30006e-06
9.34069e-06
9.35863e-06
9.33666e-06
9.28107e-06
9.23526e-06
9.2583e-06
9.38026e-06
9.58818e-06
9.83815e-06
1.00788e-05
1.0277e-05
1.04342e-05
1.05779e-05
1.07455e-05
1.09668e-05
1.12685e-05
1.19529e-05
2.31095e-05
0.00014773
0.000329131
9.10527e-06
9.10336e-06
9.10373e-06
9.10336e-06
9.10325e-06
9.10314e-06
9.10313e-06
9.10315e-06
9.10315e-06
9.1032e-06
9.10327e-06
9.10339e-06
9.10352e-06
9.10368e-06
9.10388e-06
9.10423e-06
9.10479e-06
9.10552e-06
9.10626e-06
9.10702e-06
9.10824e-06
9.11083e-06
9.11529e-06
9.12065e-06
9.12462e-06
9.12589e-06
9.12685e-06
9.13302e-06
9.14864e-06
9.17131e-06
9.19211e-06
9.20224e-06
9.20106e-06
9.19636e-06
9.19856e-06
9.21472e-06
9.24736e-06
9.29128e-06
9.33611e-06
9.35853e-06
9.33808e-06
9.28045e-06
9.23031e-06
9.24901e-06
9.36985e-06
9.58626e-06
9.85104e-06
1.0103e-05
1.0305e-05
1.0462e-05
1.06092e-05
1.07876e-05
1.10335e-05
1.15528e-05
1.902e-05
0.000126897
0.000320347
0.000410477
9.10539e-06
9.10343e-06
9.10378e-06
9.10341e-06
9.10331e-06
9.10319e-06
9.10318e-06
9.10318e-06
9.10321e-06
9.10323e-06
9.10329e-06
9.10338e-06
9.10352e-06
9.10368e-06
9.10386e-06
9.10413e-06
9.10459e-06
9.10529e-06
9.10617e-06
9.10704e-06
9.10794e-06
9.10938e-06
9.11241e-06
9.11758e-06
9.12366e-06
9.12797e-06
9.12916e-06
9.12994e-06
9.13648e-06
9.15305e-06
9.17675e-06
9.19758e-06
9.20659e-06
9.20343e-06
9.19621e-06
9.19512e-06
9.2079e-06
9.2378e-06
9.28464e-06
9.33548e-06
9.36406e-06
9.34258e-06
9.2778e-06
9.22187e-06
9.23714e-06
9.36258e-06
9.59082e-06
9.87027e-06
1.01364e-05
1.035e-05
1.05197e-05
1.06813e-05
1.08827e-05
1.12806e-05
1.63156e-05
0.000105606
0.000311198
0.000420775
0.000445829
9.1055e-06
9.10349e-06
9.10383e-06
9.10346e-06
9.10337e-06
9.10325e-06
9.10319e-06
9.10323e-06
9.10324e-06
9.10329e-06
9.10332e-06
9.10339e-06
9.10351e-06
9.10367e-06
9.10385e-06
9.10408e-06
9.10445e-06
9.10503e-06
9.10589e-06
9.10693e-06
9.10798e-06
9.10901e-06
9.11068e-06
9.11419e-06
9.12012e-06
9.12693e-06
9.13159e-06
9.13264e-06
9.13323e-06
9.13997e-06
9.15733e-06
9.18159e-06
9.20198e-06
9.20968e-06
9.20462e-06
9.19471e-06
9.19015e-06
9.19973e-06
9.23059e-06
9.28268e-06
9.33986e-06
9.36834e-06
9.34274e-06
9.27539e-06
9.2185e-06
9.23304e-06
9.36234e-06
9.60304e-06
9.9026e-06
1.01905e-05
1.04269e-05
1.06162e-05
1.08001e-05
1.11129e-05
1.44977e-05
8.56662e-05
0.000300307
0.000425355
0.00046701
0.000449671
9.10561e-06
9.10355e-06
9.1039e-06
9.1035e-06
9.10343e-06
9.1033e-06
9.10323e-06
9.10325e-06
9.1033e-06
9.10332e-06
9.10338e-06
9.10342e-06
9.10351e-06
9.10364e-06
9.10382e-06
9.10404e-06
9.10436e-06
9.10482e-06
9.10556e-06
9.10659e-06
9.10784e-06
9.10907e-06
9.11026e-06
9.11217e-06
9.1162e-06
9.12289e-06
9.13043e-06
9.13542e-06
9.13633e-06
9.13669e-06
9.14361e-06
9.16151e-06
9.18561e-06
9.20507e-06
9.21131e-06
9.20442e-06
9.19186e-06
9.18457e-06
9.19462e-06
9.22891e-06
9.28313e-06
9.34046e-06
9.36941e-06
9.34683e-06
9.28352e-06
9.22441e-06
9.23669e-06
9.37275e-06
9.63142e-06
9.95559e-06
1.02705e-05
1.05324e-05
1.07485e-05
1.10167e-05
1.32916e-05
6.79037e-05
0.000286512
0.000431293
0.000478832
0.00047737
0.000431226
9.1057e-06
9.10361e-06
9.104e-06
9.10355e-06
9.10349e-06
9.10336e-06
9.10327e-06
9.1033e-06
9.10332e-06
9.10338e-06
9.10341e-06
9.10348e-06
9.10354e-06
9.10363e-06
9.10378e-06
9.10399e-06
9.10429e-06
9.10469e-06
9.1053e-06
9.1062e-06
9.10744e-06
9.10892e-06
9.11035e-06
9.11171e-06
9.11388e-06
9.11845e-06
9.12589e-06
9.13413e-06
9.13942e-06
9.14022e-06
9.14038e-06
9.14755e-06
9.16532e-06
9.18857e-06
9.20654e-06
9.21132e-06
9.2026e-06
9.18809e-06
9.18276e-06
9.19523e-06
9.22719e-06
9.28136e-06
9.34128e-06
9.37697e-06
9.36198e-06
9.30166e-06
9.2416e-06
9.25645e-06
9.40216e-06
9.67847e-06
1.00247e-05
1.03688e-05
1.06667e-05
1.09496e-05
1.24961e-05
5.29239e-05
0.000270101
0.000435974
0.000493566
0.000493394
0.000462559
0.000398065
9.10578e-06
9.10367e-06
9.10411e-06
9.10362e-06
9.10354e-06
9.10342e-06
9.10333e-06
9.10333e-06
9.10337e-06
9.10341e-06
9.10347e-06
9.10351e-06
9.10359e-06
9.10365e-06
9.10376e-06
9.10393e-06
9.10422e-06
9.10459e-06
9.10512e-06
9.10588e-06
9.10697e-06
9.10846e-06
9.1102e-06
9.11185e-06
9.11338e-06
9.11585e-06
9.12093e-06
9.12911e-06
9.13798e-06
9.14354e-06
9.14421e-06
9.14439e-06
9.15154e-06
9.16863e-06
9.19019e-06
9.20641e-06
9.20939e-06
9.19883e-06
9.18827e-06
9.18573e-06
9.19534e-06
9.22779e-06
9.28412e-06
9.34966e-06
9.39314e-06
9.38905e-06
9.33652e-06
9.28049e-06
9.29703e-06
9.4484e-06
9.73559e-06
1.01095e-05
1.04949e-05
1.08493e-05
1.19679e-05
4.09175e-05
0.000251052
0.00043947
0.000507906
0.000513196
0.000480886
0.000431146
0.000357547
9.10587e-06
9.10372e-06
9.10421e-06
9.10371e-06
9.1036e-06
9.10348e-06
9.10339e-06
9.10337e-06
9.10341e-06
9.10346e-06
9.10351e-06
9.10358e-06
9.10362e-06
9.10371e-06
9.10377e-06
9.10389e-06
9.10413e-06
9.10448e-06
9.10497e-06
9.10565e-06
9.10659e-06
9.10791e-06
9.10967e-06
9.11171e-06
9.11359e-06
9.11535e-06
9.1181e-06
9.12368e-06
9.1325e-06
9.14189e-06
9.1476e-06
9.14825e-06
9.14859e-06
9.15554e-06
9.17124e-06
9.19072e-06
9.20449e-06
9.20469e-06
9.19857e-06
9.19154e-06
9.19012e-06
9.20224e-06
9.23613e-06
9.29395e-06
9.3648e-06
9.42281e-06
9.4359e-06
9.39376e-06
9.33818e-06
9.35239e-06
9.50561e-06
9.81344e-06
1.02217e-05
1.06553e-05
1.15645e-05
3.186e-05
0.000229348
0.000441097
0.000522203
0.000533063
0.000503413
0.000450589
0.000391392
0.000318664
9.10601e-06
9.10378e-06
9.10432e-06
9.1038e-06
9.10366e-06
9.10354e-06
9.10345e-06
9.10342e-06
9.10346e-06
9.10351e-06
9.10356e-06
9.10361e-06
9.10369e-06
9.10374e-06
9.10382e-06
9.10389e-06
9.10407e-06
9.10437e-06
9.10483e-06
9.10546e-06
9.10632e-06
9.10748e-06
9.10905e-06
9.11112e-06
9.11346e-06
9.11563e-06
9.11761e-06
9.12064e-06
9.12667e-06
9.136e-06
9.14574e-06
9.15146e-06
9.15231e-06
9.15301e-06
9.15957e-06
9.17359e-06
9.19023e-06
9.19996e-06
9.20302e-06
9.20013e-06
9.19928e-06
9.203e-06
9.21757e-06
9.25104e-06
9.31063e-06
9.39233e-06
9.46861e-06
9.49767e-06
9.46262e-06
9.40794e-06
9.42547e-06
9.59116e-06
9.91674e-06
1.03615e-05
1.11641e-05
2.52563e-05
0.000205581
0.000440093
0.000535911
0.000553517
0.00052625
0.000474363
0.00041135
0.000353137
0.000293851
9.10621e-06
9.10385e-06
9.10441e-06
9.10389e-06
9.10372e-06
9.1036e-06
9.10352e-06
9.10347e-06
9.1035e-06
9.10356e-06
9.10361e-06
9.10367e-06
9.10373e-06
9.1038e-06
9.10385e-06
9.10394e-06
9.10405e-06
9.1043e-06
9.10469e-06
9.10528e-06
9.10609e-06
9.10717e-06
9.10857e-06
9.11044e-06
9.11284e-06
9.11551e-06
9.11797e-06
9.12017e-06
9.12349e-06
9.12991e-06
9.1396e-06
9.14939e-06
9.15513e-06
9.15644e-06
9.1578e-06
9.16389e-06
9.17577e-06
9.18819e-06
9.19856e-06
9.20332e-06
9.20822e-06
9.21367e-06
9.22243e-06
9.23941e-06
9.27243e-06
9.33498e-06
9.42583e-06
9.51697e-06
9.56197e-06
9.54094e-06
9.50295e-06
9.53059e-06
9.69879e-06
1.00457e-05
1.07327e-05
2.04189e-05
0.000180372
0.000436048
0.00054862
0.000574062
0.00055003
0.000498544
0.000435606
0.000373499
0.000329208
0.000295192
9.10642e-06
9.10395e-06
9.10451e-06
9.10398e-06
9.10378e-06
9.10367e-06
9.10358e-06
9.10353e-06
9.10355e-06
9.10361e-06
9.10366e-06
9.10372e-06
9.10379e-06
9.10385e-06
9.10392e-06
9.10397e-06
9.10409e-06
9.10427e-06
9.10459e-06
9.1051e-06
9.10585e-06
9.10689e-06
9.10822e-06
9.10991e-06
9.1121e-06
9.11484e-06
9.11787e-06
9.12061e-06
9.12306e-06
9.12674e-06
9.13347e-06
9.14326e-06
9.15287e-06
9.1586e-06
9.16079e-06
9.16287e-06
9.16841e-06
9.17778e-06
9.1901e-06
9.20051e-06
9.2096e-06
9.21927e-06
9.23157e-06
9.24781e-06
9.26572e-06
9.2952e-06
9.35483e-06
9.45247e-06
9.56203e-06
9.63352e-06
9.64617e-06
9.62635e-06
9.65423e-06
9.83371e-06
1.03279e-05
1.69381e-05
0.000154086
0.000428534
0.00056012
0.000594416
0.000574306
0.000523835
0.000460267
0.000398067
0.00035006
0.000331175
0.000320838
9.10663e-06
9.10405e-06
9.1046e-06
9.10406e-06
9.10385e-06
9.10373e-06
9.10365e-06
9.1036e-06
9.1036e-06
9.10366e-06
9.10372e-06
9.10378e-06
9.10385e-06
9.10392e-06
9.10396e-06
9.10403e-06
9.10411e-06
9.1043e-06
9.10456e-06
9.10498e-06
9.10564e-06
9.10662e-06
9.1079e-06
9.10951e-06
9.11155e-06
9.11407e-06
9.11716e-06
9.12054e-06
9.12356e-06
9.1264e-06
9.13041e-06
9.13737e-06
9.14706e-06
9.15608e-06
9.1619e-06
9.165e-06
9.16787e-06
9.17387e-06
9.18464e-06
9.19658e-06
9.2057e-06
9.2161e-06
9.23124e-06
9.25341e-06
9.27473e-06
9.28835e-06
9.30948e-06
9.36664e-06
9.47525e-06
9.61199e-06
9.72418e-06
9.76871e-06
9.76389e-06
9.80697e-06
1.00695e-05
1.44471e-05
0.000128018
0.000416964
0.000570206
0.000614372
0.000598884
0.000549834
0.000486072
0.000422956
0.000375031
0.000352351
0.000356953
0.000359969
9.10681e-06
9.10415e-06
9.10469e-06
9.10415e-06
9.10394e-06
9.1038e-06
9.10372e-06
9.10367e-06
9.10365e-06
9.10371e-06
9.10378e-06
9.10384e-06
9.10391e-06
9.10398e-06
9.10404e-06
9.10408e-06
9.10417e-06
9.10433e-06
9.10459e-06
9.10493e-06
9.1055e-06
9.10637e-06
9.10759e-06
9.10915e-06
9.11112e-06
9.1135e-06
9.11636e-06
9.11981e-06
9.1235e-06
9.12692e-06
9.13017e-06
9.13454e-06
9.14176e-06
9.15079e-06
9.15893e-06
9.16473e-06
9.16871e-06
9.17444e-06
9.18427e-06
9.19595e-06
9.20344e-06
9.21053e-06
9.22195e-06
9.24409e-06
9.27462e-06
9.29677e-06
9.30623e-06
9.32108e-06
9.37703e-06
9.50052e-06
9.66701e-06
9.81769e-06
9.90061e-06
9.92926e-06
1.00263e-05
1.28404e-05
0.000102873
0.000401674
0.000578598
0.000633773
0.000623563
0.00057642
0.000512659
0.000448929
0.0004002
0.000377633
0.000378121
0.000395919
0.000401305
9.10699e-06
9.10425e-06
9.10478e-06
9.10424e-06
9.10403e-06
9.10386e-06
9.10379e-06
9.10374e-06
9.10371e-06
9.10377e-06
9.10384e-06
9.1039e-06
9.10397e-06
9.10404e-06
9.1041e-06
9.10416e-06
9.10422e-06
9.1044e-06
9.10462e-06
9.10497e-06
9.10543e-06
9.1062e-06
9.10731e-06
9.1088e-06
9.1107e-06
9.11305e-06
9.11579e-06
9.119e-06
9.12276e-06
9.12677e-06
9.13062e-06
9.1343e-06
9.13926e-06
9.14638e-06
9.15439e-06
9.16141e-06
9.1671e-06
9.17427e-06
9.18486e-06
9.19756e-06
9.20625e-06
9.21042e-06
9.21408e-06
9.22617e-06
9.25556e-06
9.2931e-06
9.32031e-06
9.32757e-06
9.33364e-06
9.38789e-06