/*--------------------------------*- C++ -*----------------------------------*\
  =========                 |
  \\      /  F ield         | OpenFOAM: The Open Source CFD Toolbox
   \\    /   O peration     | Website:  https://openfoam.org
    \\  /    A nd           | Version:  dev
     \\/     M anipulation  |
\*---------------------------------------------------------------------------*/
FoamFile
{
    version     2.0;
    format      ascii;
    class       volScalarField;
    location    "75";
    object      nuTilda;
}
// * * * * * * * * * * * * * * * * * * * * * * * * * * * * * * * * * * * * * //

dimensions      [0 2 -1 0 0 0 0];

internalField   nonuniform List<scalar> 
29380
(
6.00269e-05
6.00235e-05
6.0007e-05
6.00218e-05
6.00062e-05
6.00191e-05
6.00197e-05
6.00059e-05
6.00169e-05
6.00087e-05
6.00174e-05
6.00056e-05
6.00158e-05
6.00077e-05
6.00113e-05
6.00153e-05
6.00055e-05
6.00146e-05
6.00072e-05
6.00099e-05
6.0008e-05
6.0014e-05
6.00053e-05
6.00134e-05
6.00067e-05
6.00092e-05
6.00069e-05
6.00081e-05
6.00129e-05
6.00051e-05
6.00124e-05
6.00062e-05
6.00084e-05
6.00065e-05
6.0007e-05
6.00077e-05
6.00123e-05
6.00049e-05
6.00114e-05
6.00058e-05
6.00078e-05
6.0006e-05
6.00065e-05
6.00068e-05
6.00083e-05
6.00119e-05
6.00047e-05
6.00105e-05
6.00054e-05
6.00071e-05
6.00055e-05
6.0006e-05
6.00063e-05
6.00073e-05
6.00099e-05
6.00111e-05
6.00045e-05
6.00096e-05
6.0005e-05
6.00065e-05
6.00051e-05
6.00055e-05
6.00058e-05
6.00068e-05
6.00088e-05
6.00133e-05
6.00103e-05
6.00043e-05
6.00088e-05
6.00047e-05
6.0006e-05
6.00047e-05
6.00051e-05
6.00054e-05
6.00063e-05
6.00083e-05
6.00121e-05
6.00185e-05
6.00093e-05
6.00041e-05
6.00081e-05
6.00045e-05
6.00054e-05
6.00044e-05
6.00047e-05
6.0005e-05
6.00059e-05
6.00078e-05
6.00114e-05
6.00169e-05
6.00266e-05
6.00084e-05
6.00039e-05
6.00074e-05
6.00043e-05
6.0005e-05
6.00041e-05
6.00044e-05
6.00047e-05
6.00055e-05
6.00073e-05
6.00107e-05
6.00162e-05
6.00246e-05
6.00384e-05
6.00078e-05
6.00039e-05
6.00067e-05
6.0004e-05
6.00046e-05
6.00039e-05
6.00041e-05
6.00044e-05
6.00052e-05
6.00068e-05
6.001e-05
6.00153e-05
6.00235e-05
6.00357e-05
6.0056e-05
6.00075e-05
6.00038e-05
6.00061e-05
6.00039e-05
6.00043e-05
6.00036e-05
6.00038e-05
6.00041e-05
6.00048e-05
6.00064e-05
6.00094e-05
6.00145e-05
6.00221e-05
6.0034e-05
6.00518e-05
6.00805e-05
6.00071e-05
6.00036e-05
6.00056e-05
6.00037e-05
6.0004e-05
6.00034e-05
6.00036e-05
6.00038e-05
6.00045e-05
6.00061e-05
6.00089e-05
6.00137e-05
6.00209e-05
6.00322e-05
6.00492e-05
6.00737e-05
6.01145e-05
6.00065e-05
6.00033e-05
6.00051e-05
6.00036e-05
6.00037e-05
6.00033e-05
6.00034e-05
6.00036e-05
6.00042e-05
6.00057e-05
6.00084e-05
6.0013e-05
6.00198e-05
6.00304e-05
6.00464e-05
6.00699e-05
6.01047e-05
6.0158e-05
6.00057e-05
6.00031e-05
6.00046e-05
6.00034e-05
6.00035e-05
6.00032e-05
6.00032e-05
6.00034e-05
6.00039e-05
6.00054e-05
6.00079e-05
6.00124e-05
6.00189e-05
6.00287e-05
6.00438e-05
6.00659e-05
6.00986e-05
6.0144e-05
6.02179e-05
6.0005e-05
6.00029e-05
6.0004e-05
6.00031e-05
6.00033e-05
6.0003e-05
6.00031e-05
6.00032e-05
6.00037e-05
6.0005e-05
6.00074e-05
6.00117e-05
6.00179e-05
6.00272e-05
6.00413e-05
6.00621e-05
6.00924e-05
6.01366e-05
6.01964e-05
6.02943e-05
6.00044e-05
6.00028e-05
6.00036e-05
6.00028e-05
6.0003e-05
6.00029e-05
6.0003e-05
6.00031e-05
6.00035e-05
6.00046e-05
6.00069e-05
6.0011e-05
6.0017e-05
6.00258e-05
6.0039e-05
6.00585e-05
6.00868e-05
6.01281e-05
6.01845e-05
6.0264e-05
6.03913e-05
6.00042e-05
6.00028e-05
6.00033e-05
6.00026e-05
6.00028e-05
6.00027e-05
6.00028e-05
6.00031e-05
6.00034e-05
6.00043e-05
6.00064e-05
6.00102e-05
6.00159e-05
6.00244e-05
6.00368e-05
6.00551e-05
6.00816e-05
6.012e-05
6.01717e-05
6.02486e-05
6.03489e-05
6.051e-05
6.00042e-05
6.00028e-05
6.00033e-05
6.00025e-05
6.00025e-05
6.00024e-05
6.00026e-05
6.0003e-05
6.00033e-05
6.00042e-05
6.0006e-05
6.00094e-05
6.00148e-05
6.0023e-05
6.00347e-05
6.00519e-05
6.00768e-05
6.01122e-05
6.01605e-05
6.02312e-05
6.03275e-05
6.04527e-05
6.06518e-05
6.00042e-05
6.00028e-05
6.00032e-05
6.00025e-05
6.00023e-05
6.00023e-05
6.00024e-05
6.00028e-05
6.00033e-05
6.00041e-05
6.00057e-05
6.00087e-05
6.00137e-05
6.00214e-05
6.00325e-05
6.00488e-05
6.00722e-05
6.0105e-05
6.01505e-05
6.02155e-05
6.03037e-05
6.04244e-05
6.05761e-05
6.08171e-05
6.0004e-05
6.00027e-05
6.00032e-05
6.00026e-05
6.00023e-05
6.00022e-05
6.00022e-05
6.00026e-05
6.00031e-05
6.0004e-05
6.00056e-05
6.00083e-05
6.00127e-05
6.00197e-05
6.00301e-05
6.00455e-05
6.00678e-05
6.00985e-05
6.01414e-05
6.02007e-05
6.02825e-05
6.03926e-05
6.05394e-05
6.07194e-05
6.10054e-05
6.00036e-05
6.00025e-05
6.0003e-05
6.00026e-05
6.00024e-05
6.00022e-05
6.00022e-05
6.00023e-05
6.00029e-05
6.00038e-05
6.00054e-05
6.0008e-05
6.0012e-05
6.00182e-05
6.00278e-05
6.00421e-05
6.00632e-05
6.00924e-05
6.01328e-05
6.01872e-05
6.0263e-05
6.03645e-05
6.0498e-05
6.06727e-05
6.08817e-05
6.12149e-05
6.00032e-05
6.00024e-05
6.00027e-05
6.00025e-05
6.00024e-05
6.00022e-05
6.00022e-05
6.00022e-05
6.00026e-05
6.00035e-05
6.00052e-05
6.00077e-05
6.00115e-05
6.0017e-05
6.00256e-05
6.00386e-05
6.00583e-05
6.00861e-05
6.01242e-05
6.01747e-05
6.02453e-05
6.03387e-05
6.04614e-05
6.06198e-05
6.08236e-05
6.10613e-05
6.14426e-05
6.00031e-05
6.00023e-05
6.00024e-05
6.00024e-05
6.00023e-05
6.00022e-05
6.00022e-05
6.00022e-05
6.00025e-05
6.00032e-05
6.00048e-05
6.00074e-05
6.00111e-05
6.00163e-05
6.00239e-05
6.00355e-05
6.00534e-05
6.00795e-05
6.01154e-05
6.0163e-05
6.02288e-05
6.03154e-05
6.04279e-05
6.05733e-05
6.07573e-05
6.09902e-05
6.12556e-05
6.16849e-05
6.00032e-05
6.00023e-05
6.00022e-05
6.00022e-05
6.00021e-05
6.00022e-05
6.00022e-05
6.00023e-05
6.00024e-05
6.0003e-05
6.00043e-05
6.00068e-05
6.00106e-05
6.00157e-05
6.00228e-05
6.00331e-05
6.00487e-05
6.00726e-05
6.0106e-05
6.01512e-05
6.02129e-05
6.02939e-05
6.03978e-05
6.05306e-05
6.06992e-05
6.09088e-05
6.11701e-05
6.1461e-05
6.19374e-05
6.00032e-05
6.00023e-05
6.00022e-05
6.00022e-05
6.00019e-05
6.0002e-05
6.00021e-05
6.00023e-05
6.00025e-05
6.0003e-05
6.0004e-05
6.00061e-05
6.00097e-05
6.00149e-05
6.00218e-05
6.00314e-05
6.00451e-05
6.0066e-05
6.00966e-05
6.01389e-05
6.01964e-05
6.02731e-05
6.03703e-05
6.04924e-05
6.0646e-05
6.08377e-05
6.10718e-05
6.136e-05
6.16738e-05
6.21952e-05
6.00032e-05
6.00023e-05
6.00023e-05
6.00022e-05
6.00019e-05
6.00019e-05
6.0002e-05
6.00022e-05
6.00025e-05
6.0003e-05
6.00038e-05
6.00056e-05
6.00088e-05
6.00137e-05
6.00206e-05
6.003e-05
6.00425e-05
6.00608e-05
6.00877e-05
6.01262e-05
6.0179e-05
6.02516e-05
6.03438e-05
6.04577e-05
6.05985e-05
6.07726e-05
6.09863e-05
6.12433e-05
6.15562e-05
6.18894e-05
6.24535e-05
6.0003e-05
6.00022e-05
6.00024e-05
6.00023e-05
6.00019e-05
6.00019e-05
6.00019e-05
6.00021e-05
6.00025e-05
6.0003e-05
6.00038e-05
6.00054e-05
6.0008e-05
6.00123e-05
6.0019e-05
6.00284e-05
6.00407e-05
6.00571e-05
6.00804e-05
6.01141e-05
6.01612e-05
6.02285e-05
6.03165e-05
6.04248e-05
6.05557e-05
6.07146e-05
6.09082e-05
6.11422e-05
6.14199e-05
6.17546e-05
6.21039e-05
6.27079e-05
6.00029e-05
6.00021e-05
6.00024e-05
6.00024e-05
6.00021e-05
6.0002e-05
6.00019e-05
6.0002e-05
6.00024e-05
6.00029e-05
6.00038e-05
6.00053e-05
6.00076e-05
6.00112e-05
6.00171e-05
6.00262e-05
6.00386e-05
6.00544e-05
6.00752e-05
6.01041e-05
6.01447e-05
6.02043e-05
6.02868e-05
6.03909e-05
6.05153e-05
6.06625e-05
6.08386e-05
6.105e-05
6.13022e-05
6.15976e-05
6.19513e-05
6.23133e-05
6.29543e-05
6.00028e-05
6.0002e-05
6.00023e-05
6.00023e-05
6.00021e-05
6.00021e-05
6.00019e-05
6.0002e-05
6.00022e-05
6.00028e-05
6.00037e-05
6.00053e-05
6.00074e-05
6.00105e-05
6.00155e-05
6.00237e-05
6.00358e-05
6.00516e-05
6.00714e-05
6.0097e-05
6.01314e-05
6.01816e-05
6.02553e-05
6.03539e-05
6.04741e-05
6.06139e-05
6.07764e-05
6.0968e-05
6.11949e-05
6.14626e-05
6.17728e-05
6.21426e-05
6.25142e-05
6.31895e-05
6.00028e-05
6.0002e-05
6.00022e-05
6.00022e-05
6.00021e-05
6.00021e-05
6.0002e-05
6.00021e-05
6.00022e-05
6.00026e-05
6.00035e-05
6.00051e-05
6.00073e-05
6.00102e-05
6.00145e-05
6.00214e-05
6.00323e-05
6.00478e-05
6.00676e-05
6.0092e-05
6.01224e-05
6.01631e-05
6.02251e-05
6.03139e-05
6.04288e-05
6.05645e-05
6.07188e-05
6.0895e-05
6.10998e-05
6.13398e-05
6.162e-05
6.19423e-05
6.23256e-05
6.27037e-05
6.34109e-05
6.00029e-05
6.0002e-05
6.00021e-05
6.00022e-05
6.0002e-05
6.00021e-05
6.00021e-05
6.00022e-05
6.00022e-05
6.00025e-05
6.00033e-05
6.00047e-05
6.0007e-05
6.00099e-05
6.00139e-05
6.00197e-05
6.00291e-05
6.00433e-05
6.00627e-05
6.00871e-05
6.01163e-05
6.01508e-05
6.02003e-05
6.02745e-05
6.0379e-05
6.05103e-05
6.06607e-05
6.08278e-05
6.10155e-05
6.12312e-05
6.14812e-05
6.17713e-05
6.21031e-05
6.24974e-05
6.28799e-05
6.36166e-05
6.00029e-05
6.0002e-05
6.00022e-05
6.00022e-05
6.00019e-05
6.00021e-05
6.00021e-05
6.00022e-05
6.00023e-05
6.00025e-05
6.00031e-05
6.00043e-05
6.00065e-05
6.00095e-05
6.00133e-05
6.00186e-05
6.00265e-05
6.00388e-05
6.00569e-05
6.0081e-05
6.01105e-05
6.01434e-05
6.01838e-05
6.02417e-05
6.03291e-05
6.04501e-05
6.05968e-05
6.07606e-05
6.09385e-05
6.11352e-05
6.1359e-05
6.16165e-05
6.19139e-05
6.22529e-05
6.26563e-05
6.30412e-05
6.38051e-05
6.00029e-05
6.0002e-05
6.00022e-05
6.00022e-05
6.00019e-05
6.0002e-05
6.0002e-05
6.00022e-05
6.00023e-05
6.00026e-05
6.00031e-05
6.00041e-05
6.00059e-05
6.00088e-05
6.00126e-05
6.00177e-05
6.00247e-05
6.00352e-05
6.0051e-05
6.00734e-05
6.01029e-05
6.01372e-05
6.01746e-05
6.02199e-05
6.0287e-05
6.03886e-05
6.05251e-05
6.06866e-05
6.08618e-05
6.1048e-05
6.12513e-05
6.14805e-05
6.17428e-05
6.20455e-05
6.239e-05
6.28008e-05
6.31866e-05
6.39754e-05
6.0003e-05
6.0002e-05
6.00023e-05
6.00022e-05
6.0002e-05
6.00021e-05
6.0002e-05
6.00021e-05
6.00023e-05
6.00026e-05
6.00031e-05
6.00039e-05
6.00055e-05
6.0008e-05
6.00117e-05
6.00167e-05
6.00233e-05
6.00325e-05
6.00461e-05
6.00658e-05
6.00934e-05
6.01289e-05
6.01678e-05
6.02085e-05
6.02589e-05
6.03356e-05
6.04507e-05
6.06025e-05
6.07772e-05
6.09616e-05
6.11539e-05
6.13612e-05
6.15933e-05
6.18584e-05
6.21648e-05
6.25132e-05
6.293e-05
6.33151e-05
6.41711e-05
6.00033e-05
6.0002e-05
6.00023e-05
6.00023e-05
6.00021e-05
6.00021e-05
6.0002e-05
6.00021e-05
6.00023e-05
6.00026e-05
6.00031e-05
6.00039e-05
6.00052e-05
6.00074e-05
6.00108e-05
6.00155e-05
6.00218e-05
6.00303e-05
6.00421e-05
6.00591e-05
6.00834e-05
6.01176e-05
6.01588e-05
6.02015e-05
6.02447e-05
6.02995e-05
6.03853e-05
6.05138e-05
6.06799e-05
6.0866e-05
6.10577e-05
6.12538e-05
6.14627e-05
6.16955e-05
6.19619e-05
6.22706e-05
6.26217e-05
6.30432e-05
6.34705e-05
6.44046e-05
6.00035e-05
6.0002e-05
6.00024e-05
6.00023e-05
6.00021e-05
6.00022e-05
6.00021e-05
6.00021e-05
6.00023e-05
6.00026e-05
6.00031e-05
6.00038e-05
6.0005e-05
6.00069e-05
6.00099e-05
6.00144e-05
6.00203e-05
6.00281e-05
6.00388e-05
6.00536e-05
6.00746e-05
6.01048e-05
6.01454e-05
6.0192e-05
6.02374e-05
6.02817e-05
6.03402e-05
6.04345e-05
6.05758e-05
6.07553e-05
6.09511e-05
6.1148e-05
6.13457e-05
6.1554e-05
6.17859e-05
6.20524e-05
6.23623e-05
6.27149e-05
6.31799e-05
6.36535e-05
6.46728e-05
6.00038e-05
6.00021e-05
6.00024e-05
6.00023e-05
6.00022e-05
6.00022e-05
6.00022e-05
6.00022e-05
6.00023e-05
6.00026e-05
6.0003e-05
6.00038e-05
6.00049e-05
6.00065e-05
6.00092e-05
6.00132e-05
6.00189e-05
6.00262e-05
6.00357e-05
6.00488e-05
6.0067e-05
6.00927e-05
6.01293e-05
6.01767e-05
6.02278e-05
6.02739e-05
6.03182e-05
6.03794e-05
6.04815e-05
6.06354e-05
6.08265e-05
6.10302e-05
6.12305e-05
6.14278e-05
6.16338e-05
6.18636e-05
6.21293e-05
6.24394e-05
6.2829e-05
6.33475e-05
6.38623e-05
6.49346e-05
6.00041e-05
6.00022e-05
6.00024e-05
6.00024e-05
6.00022e-05
6.00023e-05
6.00022e-05
6.00023e-05
6.00024e-05
6.00026e-05
6.0003e-05
6.00037e-05
6.00047e-05
6.00061e-05
6.00084e-05
6.00121e-05
6.00175e-05
6.00245e-05
6.00332e-05
6.00446e-05
6.00605e-05
6.00821e-05
6.01132e-05
6.0157e-05
6.02107e-05
6.02646e-05
6.03103e-05
6.0353e-05
6.04155e-05
6.05254e-05
6.069e-05
6.08914e-05
6.11016e-05
6.13037e-05
6.14989e-05
6.17014e-05
6.19284e-05
6.21923e-05
6.25349e-05
6.29743e-05
6.35212e-05
6.40823e-05
6.51983e-05
6.00044e-05
6.00023e-05
6.00025e-05
6.00024e-05
6.00022e-05
6.00023e-05
6.00023e-05
6.00024e-05
6.00024e-05
6.00026e-05
6.0003e-05
6.00037e-05
6.00046e-05
6.00058e-05
6.00077e-05
6.00108e-05
6.00159e-05
6.00228e-05
6.00312e-05
6.00413e-05
6.00548e-05
6.00732e-05
6.0099e-05
6.01364e-05
6.01873e-05
6.02465e-05
6.03023e-05
6.03457e-05
6.03847e-05
6.04476e-05
6.05635e-05
6.07378e-05
6.09483e-05
6.1164e-05
6.13665e-05
6.15583e-05
6.17565e-05
6.19799e-05
6.22719e-05
6.26596e-05
6.31203e-05
6.37221e-05
6.42989e-05
6.54587e-05
6.00046e-05
6.00024e-05
6.00026e-05
6.00025e-05
6.00023e-05
6.00023e-05
6.00023e-05
6.00024e-05
6.00025e-05
6.00027e-05
6.0003e-05
6.00036e-05
6.00045e-05
6.00057e-05
6.00072e-05
6.00097e-05
6.0014e-05
6.00207e-05
6.00292e-05
6.00391e-05
6.00508e-05
6.00661e-05
6.00872e-05
6.01177e-05
6.01617e-05
6.02197e-05
6.02838e-05
6.03397e-05
6.03786e-05
6.0412e-05
6.04737e-05
6.05944e-05
6.07773e-05
6.0996e-05
6.12162e-05
6.1418e-05
6.16057e-05
6.17991e-05
6.20462e-05
6.23778e-05
6.27898e-05
6.329e-05
6.39186e-05
6.45145e-05
6.57035e-05
6.00048e-05
6.00025e-05
6.00027e-05
6.00025e-05
6.00024e-05
6.00024e-05
6.00023e-05
6.00024e-05
6.00025e-05
6.00027e-05
6.0003e-05
6.00036e-05
6.00045e-05
6.00056e-05
6.0007e-05
6.00089e-05
6.00121e-05
6.00179e-05
6.00265e-05
6.0037e-05
6.00483e-05
6.00613e-05
6.00783e-05
6.01022e-05
6.01379e-05
6.01892e-05
6.02538e-05
6.03216e-05
6.03757e-05
6.04073e-05
6.04334e-05
6.04924e-05
6.06168e-05
6.08072e-05
6.10337e-05
6.12575e-05
6.14579e-05
6.16412e-05
6.18545e-05
6.21378e-05
6.24934e-05
6.29289e-05
6.34648e-05
6.41075e-05
6.47084e-05
6.59282e-05
6.0005e-05
6.00026e-05
6.00029e-05
6.00026e-05
6.00025e-05
6.00025e-05
6.00024e-05
6.00025e-05
6.00026e-05
6.00027e-05
6.0003e-05
6.00035e-05
6.00043e-05
6.00056e-05
6.0007e-05
6.00086e-05
6.00109e-05
6.00151e-05
6.00227e-05
6.00336e-05
6.0046e-05
6.00588e-05
6.00729e-05
6.0091e-05
6.01182e-05
6.01598e-05
6.02178e-05
6.02886e-05
6.03586e-05
6.04084e-05
6.04308e-05
6.04478e-05
6.05027e-05
6.06292e-05
6.08268e-05
6.10606e-05
6.12877e-05
6.14865e-05
6.16882e-05
6.19354e-05
6.22393e-05
6.26117e-05
6.30809e-05
6.36263e-05
6.42833e-05
6.48914e-05
6.61292e-05
6.00051e-05
6.00027e-05
6.00031e-05
6.00026e-05
6.00026e-05
6.00026e-05
6.00025e-05
6.00025e-05
6.00026e-05
6.00028e-05
6.0003e-05
6.00034e-05
6.00041e-05
6.00053e-05
6.00069e-05
6.00086e-05
6.00105e-05
6.00132e-05
6.00187e-05
6.00285e-05
6.00419e-05
6.00564e-05
6.00704e-05
6.00849e-05
6.01042e-05
6.01351e-05
6.01822e-05
6.02469e-05
6.03229e-05
6.03935e-05
6.0437e-05
6.04483e-05
6.04545e-05
6.05033e-05
6.0631e-05
6.08354e-05
6.10764e-05
6.13067e-05
6.15256e-05
6.17589e-05
6.20259e-05
6.23457e-05
6.27369e-05
6.32245e-05
6.37821e-05
6.4442e-05
6.50392e-05
6.62877e-05
6.00052e-05
6.00027e-05
6.00032e-05
6.00027e-05
6.00027e-05
6.00026e-05
6.00026e-05
6.00026e-05
6.00026e-05
6.00028e-05
6.0003e-05
6.00034e-05
6.00039e-05
6.00049e-05
6.00065e-05
6.00085e-05
6.00106e-05
6.00126e-05
6.00159e-05
6.0023e-05
6.00353e-05
6.00515e-05
6.00681e-05
6.00829e-05
6.00974e-05
6.0118e-05
6.0152e-05
6.02046e-05
6.02753e-05
6.03557e-05
6.04252e-05
6.04605e-05
6.04588e-05
6.0452e-05
6.04933e-05
6.06218e-05
6.0833e-05
6.10812e-05
6.13353e-05
6.15844e-05
6.18416e-05
6.21203e-05
6.24489e-05
6.28663e-05
6.33564e-05
6.39085e-05
6.45648e-05
6.51579e-05
6.64215e-05
6.00053e-05
6.00027e-05
6.00033e-05
6.00028e-05
6.00027e-05
6.00027e-05
6.00027e-05
6.00027e-05
6.00027e-05
6.00029e-05
6.00031e-05
6.00034e-05
6.00038e-05
6.00045e-05
6.00059e-05
6.0008e-05
6.00106e-05
6.00129e-05
6.00151e-05
6.0019e-05
6.00278e-05
6.00431e-05
6.00623e-05
6.0081e-05
6.00961e-05
6.01101e-05
6.01314e-05
6.01686e-05
6.0226e-05
6.03023e-05
6.03858e-05
6.04525e-05
6.04777e-05
6.04612e-05
6.04398e-05
6.04725e-05
6.06015e-05
6.08195e-05
6.10943e-05
6.13799e-05
6.16586e-05
6.19254e-05
6.22138e-05
6.25584e-05
6.29738e-05
6.3461e-05
6.40177e-05
6.46821e-05
6.5272e-05
6.65472e-05
6.00055e-05
6.00028e-05
6.00034e-05
6.00028e-05
6.00028e-05
6.00028e-05
6.00027e-05
6.00028e-05
6.00028e-05
6.00029e-05
6.00031e-05
6.00034e-05
6.00038e-05
6.00043e-05
6.00053e-05
6.00071e-05
6.00099e-05
6.0013e-05
6.00156e-05
6.00178e-05
6.00225e-05
6.00334e-05
6.00519e-05
6.00744e-05
6.00949e-05
6.01094e-05
6.01226e-05
6.01444e-05
6.0184e-05
6.02458e-05
6.03267e-05
6.04119e-05
6.04741e-05
6.04881e-05
6.04551e-05
6.04174e-05
6.04409e-05
6.05702e-05
6.0813e-05
6.11218e-05
6.14399e-05
6.17332e-05
6.20102e-05
6.22998e-05
6.26507e-05
6.307e-05
6.35657e-05
6.41278e-05
6.47894e-05
6.53727e-05
6.66634e-05
6.00055e-05
6.00029e-05
6.00036e-05
6.00029e-05
6.00028e-05
6.00028e-05
6.00028e-05
6.00028e-05
6.00029e-05
6.0003e-05
6.00031e-05
6.00035e-05
6.00039e-05
6.00044e-05
6.0005e-05
6.00062e-05
6.00087e-05
6.00122e-05
6.00159e-05
6.00186e-05
6.00209e-05
6.00264e-05
6.00397e-05
6.00617e-05
6.00876e-05
6.01091e-05
6.01229e-05
6.01346e-05
6.01561e-05
6.01976e-05
6.02629e-05
6.03473e-05
6.04329e-05
6.04898e-05
6.04911e-05
6.04401e-05
6.03852e-05
6.03989e-05
6.05445e-05
6.08206e-05
6.11596e-05
6.15019e-05
6.18046e-05
6.20831e-05
6.23866e-05
6.27461e-05
6.31677e-05
6.36594e-05
6.421e-05
6.48596e-05
6.54371e-05
6.67597e-05
6.00058e-05
6.00029e-05
6.00037e-05
6.0003e-05
6.00028e-05
6.00028e-05
6.00028e-05
6.00029e-05
6.00029e-05
6.0003e-05
6.00032e-05
6.00035e-05
6.00039e-05
6.00044e-05
6.0005e-05
6.00058e-05
6.00074e-05
6.00106e-05
6.0015e-05
6.00193e-05
6.00221e-05
6.00244e-05
6.00309e-05
6.00467e-05
6.00724e-05
6.01013e-05
6.01237e-05
6.01359e-05
6.01456e-05
6.01662e-05
6.02086e-05
6.02765e-05
6.03632e-05
6.04483e-05
6.04987e-05
6.04863e-05
6.04163e-05
6.03435e-05
6.03614e-05
6.05331e-05
6.08322e-05
6.12014e-05
6.15562e-05
6.18728e-05
6.21669e-05
6.24803e-05
6.28311e-05
6.32382e-05
6.3711e-05
6.42426e-05
6.48802e-05
6.54594e-05
6.6959e-05
6.0006e-05
6.00031e-05
6.00038e-05
6.00032e-05
6.00029e-05
6.00029e-05
6.00029e-05
6.00029e-05
6.0003e-05
6.00031e-05
6.00032e-05
6.00035e-05
6.00038e-05
6.00044e-05
6.0005e-05
6.00057e-05
6.00068e-05
6.00089e-05
6.00129e-05
6.00182e-05
6.00231e-05
6.00259e-05
6.00282e-05
6.00357e-05
6.00542e-05
6.00837e-05
6.01154e-05
6.0138e-05
6.01482e-05
6.01553e-05
6.01743e-05
6.02167e-05
6.02859e-05
6.03737e-05
6.04572e-05
6.05006e-05
6.04736e-05
6.03841e-05
6.03064e-05
6.03384e-05
6.05226e-05
6.08479e-05
6.12374e-05
6.1618e-05
6.19518e-05
6.22507e-05
6.25501e-05
6.28805e-05
6.32636e-05
6.37158e-05
6.42319e-05
6.48722e-05
6.55322e-05
6.95637e-05
6.00063e-05
6.00031e-05
6.0004e-05
6.00033e-05
6.0003e-05
6.00029e-05
6.00029e-05
6.0003e-05
6.0003e-05
6.00032e-05
6.00033e-05
6.00035e-05
6.00038e-05
6.00043e-05
6.0005e-05
6.00058e-05
6.00066e-05
6.00079e-05
6.00106e-05
6.00155e-05
6.00219e-05
6.00273e-05
6.00301e-05
6.00323e-05
6.00408e-05
6.00622e-05
6.00954e-05
6.01295e-05
6.01519e-05
6.01596e-05
6.01634e-05
6.018e-05
6.02214e-05
6.02905e-05
6.03781e-05
6.04594e-05
6.04951e-05
6.04531e-05
6.03573e-05
6.02834e-05
6.03162e-05
6.05147e-05
6.08658e-05
6.12832e-05
6.16818e-05
6.20169e-05
6.23071e-05
6.25877e-05
6.28931e-05
6.32556e-05
6.36925e-05
6.42174e-05
6.49269e-05
6.68222e-05
9.6844e-05
6.00066e-05
6.00033e-05
6.0004e-05
6.00034e-05
6.00031e-05
6.0003e-05
6.0003e-05
6.0003e-05
6.00031e-05
6.00032e-05
6.00034e-05
6.00036e-05
6.00038e-05
6.00042e-05
6.00048e-05
6.00057e-05
6.00067e-05
6.00077e-05
6.00093e-05
6.00126e-05
6.00185e-05
6.0026e-05
6.00321e-05
6.00348e-05
6.00369e-05
6.00465e-05
6.00706e-05
6.01072e-05
6.01433e-05
6.01649e-05
6.01697e-05
6.01698e-05
6.0183e-05
6.0222e-05
6.02895e-05
6.03759e-05
6.04543e-05
6.04817e-05
6.04388e-05
6.03429e-05
6.0262e-05
6.02972e-05
6.05172e-05
6.08869e-05
6.1319e-05
6.17249e-05
6.20625e-05
6.23439e-05
6.26028e-05
6.28883e-05
6.32399e-05
6.36946e-05
6.42721e-05
6.57969e-05
8.48168e-05
0.000203684
6.00069e-05
6.00034e-05
6.00042e-05
6.00035e-05
6.00033e-05
6.00031e-05
6.00031e-05
6.00031e-05
6.00031e-05
6.00032e-05
6.00034e-05
6.00036e-05
6.00038e-05
6.00041e-05
6.00046e-05
6.00054e-05
6.00066e-05
6.00077e-05
6.00089e-05
6.00108e-05
6.00148e-05
6.00219e-05
6.00306e-05
6.00373e-05
6.00399e-05
6.00418e-05
6.00524e-05
6.00791e-05
6.01187e-05
6.01563e-05
6.01768e-05
6.01781e-05
6.0174e-05
6.0183e-05
6.02183e-05
6.02826e-05
6.03669e-05
6.04413e-05
6.04741e-05
6.04339e-05
6.0332e-05
6.02477e-05
6.02901e-05
6.05136e-05
6.08905e-05
6.13369e-05
6.17601e-05
6.2104e-05
6.23739e-05
6.26184e-05
6.29011e-05
6.32702e-05
6.37663e-05
6.48628e-05
7.9232e-05
0.000178897
0.000339308
6.00071e-05
6.00036e-05
6.00042e-05
6.00036e-05
6.00034e-05
6.00032e-05
6.00031e-05
6.00032e-05
6.00032e-05
6.00033e-05
6.00034e-05
6.00036e-05
6.00039e-05
6.00042e-05
6.00045e-05
6.00052e-05
6.00062e-05
6.00076e-05
6.0009e-05
6.00104e-05
6.00126e-05
6.00174e-05
6.00257e-05
6.00357e-05
6.00431e-05
6.00454e-05
6.00472e-05
6.00587e-05
6.00876e-05
6.01296e-05
6.01681e-05
6.01868e-05
6.01846e-05
6.01759e-05
6.018e-05
6.02098e-05
6.027e-05
6.03508e-05
6.04329e-05
6.04739e-05
6.04365e-05
6.03309e-05
6.02386e-05
6.0273e-05
6.04946e-05
6.0887e-05
6.13597e-05
6.18024e-05
6.21523e-05
6.24213e-05
6.26715e-05
6.29717e-05
6.33807e-05
6.42265e-05
7.45258e-05
0.000162572
0.000331016
0.0004173
6.00073e-05
6.00037e-05
6.00043e-05
6.00036e-05
6.00035e-05
6.00032e-05
6.00032e-05
6.00032e-05
6.00033e-05
6.00033e-05
6.00034e-05
6.00036e-05
6.00039e-05
6.00042e-05
6.00045e-05
6.0005e-05
6.00058e-05
6.00072e-05
6.00088e-05
6.00104e-05
6.00121e-05
6.00147e-05
6.00204e-05
6.003e-05
6.00413e-05
6.00493e-05
6.00515e-05
6.00529e-05
6.00651e-05
6.00958e-05
6.01397e-05
6.01782e-05
6.01948e-05
6.0189e-05
6.01757e-05
6.01737e-05
6.01973e-05
6.02524e-05
6.03386e-05
6.04318e-05
6.0484e-05
6.04448e-05
6.0326e-05
6.0223e-05
6.02512e-05
6.04813e-05
6.08952e-05
6.13938e-05
6.18606e-05
6.22296e-05
6.25197e-05
6.27931e-05
6.31305e-05
6.37861e-05
7.11148e-05
0.000146324
0.000322414
0.00042729
0.000451673
6.00075e-05
6.00038e-05
6.00044e-05
6.00037e-05
6.00036e-05
6.00034e-05
6.00032e-05
6.00033e-05
6.00033e-05
6.00034e-05
6.00035e-05
6.00036e-05
6.00038e-05
6.00041e-05
6.00045e-05
6.00049e-05
6.00056e-05
6.00067e-05
6.00083e-05
6.00102e-05
6.00121e-05
6.00141e-05
6.00172e-05
6.00237e-05
6.00347e-05
6.00473e-05
6.0056e-05
6.0058e-05
6.0059e-05
6.00715e-05
6.01037e-05
6.01486e-05
6.01863e-05
6.02005e-05
6.01912e-05
6.01729e-05
6.01645e-05
6.01822e-05
6.02391e-05
6.0335e-05
6.04398e-05
6.04918e-05
6.04451e-05
6.03216e-05
6.02168e-05
6.02436e-05
6.04809e-05
6.09172e-05
6.14509e-05
6.19545e-05
6.23615e-05
6.26832e-05
6.29925e-05
6.35114e-05
6.8643e-05
0.00013134
0.000312225
0.000431739
0.000472363
0.000455421
6.00077e-05
6.00039e-05
6.00046e-05
6.00038e-05
6.00037e-05
6.00035e-05
6.00033e-05
6.00034e-05
6.00034e-05
6.00035e-05
6.00036e-05
6.00037e-05
6.00038e-05
6.00041e-05
6.00044e-05
6.00048e-05
6.00054e-05
6.00063e-05
6.00076e-05
6.00096e-05
6.00119e-05
6.00142e-05
6.00164e-05
6.00199e-05
6.00274e-05
6.00399e-05
6.00538e-05
6.00631e-05
6.00648e-05
6.00655e-05
6.00783e-05
6.01115e-05
6.01561e-05
6.0192e-05
6.02036e-05
6.01908e-05
6.01676e-05
6.01541e-05
6.01727e-05
6.0236e-05
6.03358e-05
6.04409e-05
6.04938e-05
6.04525e-05
6.03365e-05
6.02277e-05
6.02503e-05
6.04999e-05
6.09682e-05
6.15442e-05
6.20927e-05
6.25412e-05
6.29061e-05
6.33528e-05
6.69042e-05
0.000117923
0.000299407
0.000437514
0.000483935
0.000482503
0.000437449
6.00079e-05
6.0004e-05
6.00048e-05
6.00039e-05
6.00038e-05
6.00036e-05
6.00034e-05
6.00034e-05
6.00035e-05
6.00036e-05
6.00037e-05
6.00038e-05
6.00039e-05
6.00041e-05
6.00043e-05
6.00047e-05
6.00053e-05
6.0006e-05
6.00072e-05
6.00088e-05
6.00111e-05
6.00139e-05
6.00166e-05
6.00191e-05
6.00231e-05
6.00316e-05
6.00454e-05
6.00607e-05
6.00705e-05
6.0072e-05
6.00723e-05
6.00856e-05
6.01185e-05
6.01615e-05
6.01947e-05
6.02036e-05
6.01875e-05
6.01607e-05
6.01508e-05
6.01739e-05
6.02328e-05
6.03325e-05
6.04424e-05
6.05076e-05
6.04802e-05
6.03698e-05
6.02594e-05
6.02867e-05
6.05536e-05
6.10526e-05
6.16655e-05
6.22619e-05
6.27686e-05
6.32418e-05
6.57065e-05
0.000106239
0.0002843
0.00044207
0.000498383
0.000498213
0.000468009
0.000405288
6.00081e-05
6.00041e-05
6.0005e-05
6.00041e-05
6.00039e-05
6.00037e-05
6.00035e-05
6.00035e-05
6.00036e-05
6.00037e-05
6.00038e-05
6.00038e-05
6.0004e-05
6.00041e-05
6.00043e-05
6.00046e-05
6.00052e-05
6.00058e-05
6.00068e-05
6.00082e-05
6.00103e-05
6.0013e-05
6.00163e-05
6.00193e-05
6.00222e-05
6.00268e-05
6.00362e-05
6.00514e-05
6.00679e-05
6.00782e-05
6.00794e-05
6.00798e-05
6.0093e-05
6.01246e-05
6.01645e-05
6.01945e-05
6.02e-05
6.01805e-05
6.0161e-05
6.01563e-05
6.01741e-05
6.02339e-05
6.03376e-05
6.04577e-05
6.05371e-05
6.05297e-05
6.04337e-05
6.03309e-05
6.03613e-05
6.06377e-05
6.11546e-05
6.18136e-05
6.24774e-05
6.30748e-05
6.48863e-05
9.62863e-05
0.000266987
0.000445475
0.000512464
0.000517665
0.000485948
0.000437371
0.000366332
6.00082e-05
6.00042e-05
6.00051e-05
6.00042e-05
6.0004e-05
6.00038e-05
6.00036e-05
6.00036e-05
6.00037e-05
6.00037e-05
6.00038e-05
6.0004e-05
6.00041e-05
6.00042e-05
6.00043e-05
6.00045e-05
6.0005e-05
6.00057e-05
6.00066e-05
6.00078e-05
6.00096e-05
6.0012e-05
6.00153e-05
6.00191e-05
6.00226e-05
6.00258e-05
6.0031e-05
6.00413e-05
6.00577e-05
6.00751e-05
6.00857e-05
6.00869e-05
6.00875e-05
6.01004e-05
6.01295e-05
6.01655e-05
6.0191e-05
6.01913e-05
6.018e-05
6.0167e-05
6.01644e-05
6.01868e-05
6.02493e-05
6.03556e-05
6.04854e-05
6.05912e-05
6.0615e-05
6.05382e-05
6.04367e-05
6.04627e-05
6.07414e-05
6.12931e-05
6.20085e-05
6.27494e-05
6.42453e-05
8.81143e-05
0.000247599
0.00044706
0.000526525
0.000537217
0.00050805
0.000456317
0.000398844
0.000329431
6.00085e-05
6.00043e-05
6.00053e-05
6.00044e-05
6.00041e-05
6.00039e-05
6.00037e-05
6.00037e-05
6.00037e-05
6.00038e-05
6.00039e-05
6.0004e-05
6.00042e-05
6.00043e-05
6.00044e-05
6.00046e-05
6.00049e-05
6.00054e-05
6.00063e-05
6.00075e-05
6.00091e-05
6.00112e-05
6.00141e-05
6.0018e-05
6.00223e-05
6.00264e-05
6.003e-05
6.00357e-05
6.00469e-05
6.00642e-05
6.00823e-05
6.00929e-05
6.00944e-05
6.00957e-05
6.01079e-05
6.01338e-05
6.01646e-05
6.01826e-05
6.01882e-05
6.01829e-05
6.01813e-05
6.01882e-05
6.02151e-05
6.02768e-05
6.03862e-05
6.05356e-05
6.06744e-05
6.07271e-05
6.06635e-05
6.05641e-05
6.0596e-05
6.08958e-05
6.14758e-05
6.22494e-05
6.35955e-05
8.15368e-05
0.000226852
0.000446082
0.000540021
0.000557378
0.000530508
0.000479558
0.000418146
0.00036212
0.000306214
6.00089e-05
6.00045e-05
6.00055e-05
6.00045e-05
6.00042e-05
6.0004e-05
6.00039e-05
6.00038e-05
6.00038e-05
6.00039e-05
6.0004e-05
6.00041e-05
6.00042e-05
6.00044e-05
6.00045e-05
6.00046e-05
6.00048e-05
6.00053e-05
6.0006e-05
6.00071e-05
6.00086e-05
6.00106e-05
6.00133e-05
6.00167e-05
6.00212e-05
6.00261e-05
6.00307e-05
6.00348e-05
6.0041e-05
6.00529e-05
6.00709e-05
6.0089e-05
6.00996e-05
6.01021e-05
6.01046e-05
6.01159e-05
6.01379e-05
6.01608e-05
6.018e-05
6.01888e-05
6.01978e-05
6.02079e-05
6.02241e-05
6.02554e-05
6.03161e-05
6.04309e-05
6.05967e-05
6.0762e-05
6.08433e-05
6.08053e-05
6.07366e-05
6.07866e-05
6.10889e-05
6.17022e-05
6.28796e-05
7.61891e-05
0.000205484
0.000442142
0.000552548
0.00057766
0.000553939
0.000503269
0.000441711
0.000381617
0.000339381
0.000307461
6.00093e-05
6.00046e-05
6.00057e-05
6.00047e-05
6.00043e-05
6.00041e-05
6.0004e-05
6.00039e-05
6.00039e-05
6.0004e-05
6.00041e-05
6.00042e-05
6.00044e-05
6.00045e-05
6.00046e-05
6.00047e-05
6.00049e-05
6.00053e-05
6.00059e-05
6.00068e-05
6.00082e-05
6.00101e-05
6.00126e-05
6.00157e-05
6.00198e-05
6.00249e-05
6.00305e-05
6.00356e-05
6.00402e-05
6.0047e-05
6.00595e-05
6.00777e-05
6.00955e-05
6.01061e-05
6.01101e-05
6.0114e-05
6.01243e-05
6.01416e-05
6.01644e-05
6.01836e-05
6.02004e-05
6.02182e-05
6.02409e-05
6.02708e-05
6.03038e-05
6.03579e-05
6.04672e-05
6.06451e-05
6.08434e-05
6.0972e-05
6.09947e-05
6.09591e-05
6.10091e-05
6.1329e-05
6.21917e-05
7.19256e-05
0.000183976
0.00043483
0.000563894
0.000597777
0.000577901
0.00052813
0.000465769
0.000405289
0.000359185
0.000341243
0.000331479
6.00096e-05
6.00048e-05
6.00059e-05
6.00049e-05
6.00045e-05
6.00043e-05
6.00041e-05
6.0004e-05
6.0004e-05
6.00041e-05
6.00042e-05
6.00043e-05
6.00045e-05
6.00046e-05
6.00047e-05
6.00048e-05
6.0005e-05
6.00053e-05
6.00058e-05
6.00066e-05
6.00078e-05
6.00096e-05
6.0012e-05
6.0015e-05
6.00188e-05
6.00235e-05
6.00292e-05
6.00355e-05
6.00411e-05
6.00464e-05
6.00538e-05
6.00667e-05
6.00847e-05
6.01014e-05
6.01122e-05
6.01179e-05
6.01232e-05
6.01343e-05
6.01543e-05
6.01763e-05
6.01932e-05
6.02124e-05
6.02403e-05
6.02811e-05
6.03204e-05
6.03454e-05
6.03841e-05
6.04888e-05
6.06864e-05
6.09333e-05
6.11343e-05
6.12136e-05
6.1205e-05
6.12816e-05
6.17439e-05
6.85717e-05
0.000163439
0.000423591
0.000573851
0.000617524
0.000602196
0.000553745
0.000491031
0.000429409
0.000383089
0.00036137
0.000365765
0.000368649
6.001e-05
6.0005e-05
6.0006e-05
6.0005e-05
6.00046e-05
6.00044e-05
6.00042e-05
6.00041e-05
6.00041e-05
6.00042e-05
6.00043e-05
6.00045e-05
6.00046e-05
6.00047e-05
6.00048e-05
6.00049e-05
6.00051e-05
6.00054e-05
6.00058e-05
6.00065e-05
6.00075e-05
6.00092e-05
6.00114e-05
6.00143e-05
6.0018e-05
6.00224e-05
6.00277e-05
6.00341e-05
6.0041e-05
6.00473e-05
6.00534e-05
6.00615e-05
6.00749e-05
6.00916e-05
6.01067e-05
6.01174e-05
6.01248e-05
6.01354e-05
6.01536e-05
6.01752e-05
6.0189e-05
6.02021e-05
6.02232e-05
6.0264e-05
6.03201e-05
6.03608e-05
6.03782e-05
6.04054e-05
6.05077e-05
6.07322e-05
6.1032e-05
6.13006e-05
6.14474e-05
6.14979e-05
6.16684e-05
6.62302e-05
0.000144262
0.000408777
0.000582141
0.000636738
0.000626625
0.000579989
0.000517137
0.000454697
0.000407351
0.00038559
0.000386059
0.000403215
0.00040842
6.00103e-05
6.00052e-05
6.00062e-05
6.00052e-05
6.00048e-05
6.00045e-05
6.00044e-05
6.00043e-05
6.00042e-05
6.00043e-05
6.00044e-05
6.00046e-05
6.00047e-05
6.00048e-05
6.00049e-05
6.0005e-05
6.00052e-05
6.00055e-05
6.00059e-05
6.00065e-05
6.00074e-05
6.00088e-05
6.00109e-05
6.00137e-05
6.00172e-05
6.00216e-05
6.00267e-05
6.00326e-05
6.00396e-05
6.00471e-05
6.00542e-05
6.0061e-05
6.00702e-05
6.00834e-05
6.00983e-05
6.01113e-05
6.01218e-05
6.01351e-05
6.01547e-05
6.01782e-05
6.01942e-05
6.02019e-05
6.02087e-05
6.0231e-05
6.02851e-05
6.03541e-05
6.0404e-05
6.04173e-05
6.04284e-05
6.05275e-05
6.07642e-05