/*--------------------------------*- C++ -*----------------------------------*\
  =========                 |
  \\      /  F ield         | OpenFOAM: The Open Source CFD Toolbox
   \\    /   O peration     | Website:  https://openfoam.org
    \\  /    A nd           | Version:  dev
     \\/     M anipulation  |
\*---------------------------------------------------------------------------*/
FoamFile
{
    version     2.0;
    format      ascii;
    class       surfaceScalarField;
    location    "75";
    object      phi;
}
// * * * * * * * * * * * * * * * * * * * * * * * * * * * * * * * * * * * * * //

dimensions      [0 3 -1 0 0 0 0];

internalField   nonuniform List<scalar> 
58294
(
-0.474478
-0.000472956
-0.474478
-0.000462538
-0.429521
-0.000425639
-0.474477
-0.000444984
-0.429553
-0.000430365
-0.390295
-0.000420464
-0.474471
-0.000435241
-0.42958
-0.000417562
-0.390314
-0.000410641
-0.353885
-0.000377432
-0.47446
-0.000425811
-0.429608
-0.000407624
-0.390336
-0.000395389
-0.353914
-0.000381088
-0.321256
-0.000363204
-0.474443
-0.000416448
-0.429636
-0.000397701
-0.390357
-0.000387229
-0.353939
-0.000370165
-0.32128
-0.00035785
-0.291464
-0.000328915
-0.474422
-0.00040636
-0.429665
-0.000387897
-0.390375
-0.000379397
-0.353964
-0.00036272
-0.321304
-0.000345778
-0.291491
-0.000331266
-0.26451
-0.000308988
-0.474396
-0.000395326
-0.429693
-0.00037767
-0.390391
-0.000371901
-0.353988
-0.00035555
-0.321327
-0.00033948
-0.291514
-0.000321918
-0.264534
-0.0003081
-0.240016
-0.000281594
-0.474366
-0.000383147
-0.429722
-0.000366756
-0.390405
-0.000364015
-0.354011
-0.000348724
-0.321349
-0.000333417
-0.291537
-0.000316474
-0.264556
-0.000299106
-0.24004
-0.0002846
-0.217792
-0.00026017
-0.474332
-0.000369867
-0.42975
-0.000355038
-0.390416
-0.000355523
-0.354033
-0.000341573
-0.32137
-0.000327688
-0.291559
-0.000311315
-0.264578
-0.000294809
-0.240061
-0.00027738
-0.217814
-0.000263023
-0.197617
-0.000237291
-0.474295
-0.000355513
-0.429777
-0.000342485
-0.390425
-0.000346218
-0.354055
-0.00033395
-0.32139
-0.00032175
-0.291581
-0.000306478
-0.264599
-0.000290559
-0.240082
-0.000274
-0.217834
-0.000256818
-0.197638
-0.000242313
-0.179306
-0.000217039
-0.474256
-0.000340249
-0.429804
-0.000329159
-0.390431
-0.000336099
-0.354076
-0.000325608
-0.321409
-0.000315298
-0.291601
-0.000301372
-0.264619
-0.000286595
-0.240102
-0.000270679
-0.217854
-0.00025454
-0.197657
-0.000237521
-0.179326
-0.000223047
-0.162682
-0.000197399
-0.474214
-0.000324227
-0.429829
-0.000315145
-0.390435
-0.000325132
-0.354095
-0.000316576
-0.321426
-0.000308279
-0.29162
-0.00029589
-0.264638
-0.00028235
-0.240121
-0.000267474
-0.217872
-0.000252065
-0.197676
-0.000236209
-0.179344
-0.000219403
-0.162701
-0.000204876
-0.147594
-0.000179219
-0.474172
-0.000307624
-0.429852
-0.000300603
-0.390437
-0.000313424
-0.354113
-0.000306789
-0.321442
-0.000300557
-0.291639
-0.000289767
-0.264656
-0.000277646
-0.240139
-0.000263964
-0.21789
-0.000249664
-0.197693
-0.000234646
-0.179361
-0.000219133
-0.162718
-0.000202489
-0.147611
-0.000187921
-0.133899
-0.000162087
-0.474128
-0.000290665
-0.429874
-0.00028563
-0.390437
-0.000301046
-0.354131
-0.000296347
-0.321457
-0.000292203
-0.291656
-0.000283108
-0.264673
-0.000272423
-0.240157
-0.000259977
-0.217907
-0.000246784
-0.19771
-0.000232917
-0.179377
-0.000218389
-0.162734
-0.000203166
-0.147627
-0.000186615
-0.133915
-0.000171899
-0.121465
-0.000145867
-0.474084
-0.000273504
-0.429895
-0.000270444
-0.390434
-0.000288118
-0.354146
-0.000285298
-0.32147
-0.000283187
-0.291673
-0.000275781
-0.26469
-0.00026658
-0.240174
-0.0002554
-0.217924
-0.000243406
-0.197726
-0.000230705
-0.179393
-0.000217427
-0.162749
-0.000203301
-0.147642
-0.00018827
-0.13393
-0.000171741
-0.12148
-0.000156822
-0.11018
-0.000130555
-0.474041
-0.000256352
-0.429913
-0.000255126
-0.39043
-0.000274785
-0.354161
-0.000273737
-0.321482
-0.000273635
-0.291688
-0.00026793
-0.264705
-0.000260209
-0.24019
-0.000250288
-0.21794
-0.000239391
-0.197741
-0.000227806
-0.179408
-0.000215733
-0.162763
-0.000202969
-0.147656
-0.000189192
-0.133944
-0.000174281
-0.121494
-0.000157638
-0.110194
-0.000142341
-0.0999378
-0.00011571
-0.473998
-0.000239365
-0.42993
-0.000239872
-0.390424
-0.000261153
-0.354174
-0.000261792
-0.321492
-0.000263542
-0.291702
-0.000259521
-0.26472
-0.00025328
-0.240206
-0.000244604
-0.217955
-0.000234795
-0.197757
-0.000224242
-0.179422
-0.000213353
-0.162777
-0.000201916
-0.14767
-0.000189604
-0.133957
-0.000176029
-0.121507
-0.000161065
-0.110208
-0.000144241
-0.0999518
-0.000128466
-0.090643
-0.000101483
-0.473956
-0.000222702
-0.429944
-0.000224778
-0.390416
-0.000247368
-0.354185
-0.00024954
-0.321501
-0.00025308
-0.291715
-0.000250667
-0.264734
-0.000245914
-0.240221
-0.000238455
-0.21797
-0.000229646
-0.197771
-0.000220039
-0.179436
-0.000210142
-0.16279
-0.000199919
-0.147683
-0.000189028
-0.13397
-0.000177038
-0.12152
-0.000163556
-0.11022
-0.000148464
-0.0999648
-0.00013128
-0.0906567
-0.000114801
-0.0822092
-8.73409e-05
-0.473915
-0.00020648
-0.429957
-0.000209989
-0.390407
-0.000233551
-0.354195
-0.000237116
-0.321508
-0.000242251
-0.291727
-0.000241411
-0.264746
-0.00023809
-0.240235
-0.000231875
-0.217985
-0.000224048
-0.197786
-0.00021525
-0.17945
-0.000206197
-0.162803
-0.000197055
-0.147695
-0.000187548
-0.133982
-0.000177108
-0.121531
-0.000165275
-0.110232
-0.000151699
-0.099977
-0.000136281
-0.0906693
-0.000118724
-0.0822227
-0.00010143
-0.0745501
-7.35823e-05
-0.473875
-0.000190821
-0.429968
-0.000195574
-0.390398
-0.00021982
-0.354204
-0.000224618
-0.321514
-0.000231218
-0.291737
-0.000231832
-0.264758
-0.000229951
-0.240248
-0.000224933
-0.217998
-0.000218048
-0.1978
-0.000209983
-0.179464
-0.000201636
-0.162816
-0.000193354
-0.147707
-0.000184972
-0.133993
-0.000175989
-0.121543
-0.000165806
-0.110243
-0.000153972
-0.0999885
-0.000140194
-0.0906812
-0.000124409
-0.0822351
-0.000106319
-0.0745636
-8.79667e-05
-0.0676098
-5.96668e-05
-0.473838
-0.00017578
-0.429977
-0.000181647
-0.390387
-0.000206273
-0.354212
-0.000212156
-0.321518
-0.000220024
-0.291746
-0.000221995
-0.264768
-0.000221468
-0.24026
-0.000217694
-0.218012
-0.000211747
-0.197813
-0.000204372
-0.179477
-0.00019655
-0.162829
-0.000188871
-0.147719
-0.000181426
-0.134004
-0.000173789
-0.121553
-0.000165252
-0.110254
-0.000155151
-0.0999994
-0.000143118
-0.0906925
-0.000128961
-0.0822469
-0.000112635
-0.0745758
-9.41048e-05
-0.0676233
-7.46107e-05
-0.0613068
-4.60563e-05
-0.473802
-0.00016148
-0.429984
-0.000168227
-0.390375
-0.00019301
-0.354218
-0.000199809
-0.321522
-0.000208798
-0.291754
-0.000211993
-0.264777
-0.000212772
-0.240271
-0.000210194
-0.218024
-0.000205207
-0.197827
-0.00019845
-0.17949
-0.000191075
-0.162842
-0.000183835
-0.147731
-0.000177061
-0.134015
-0.000170477
-0.121564
-0.000163358
-0.110264
-0.000154969
-0.10001
-0.000144738
-0.0907032
-0.000132385
-0.0822581
-0.000117795
-0.0745876
-0.000100971
-0.0676355
-8.18822e-05
-0.0613203
-6.10171e-05
-0.0555947
-3.22649e-05
-0.473768
-0.000147909
-0.429991
-0.000155437
-0.390364
-0.00018008
-0.354224
-0.000187677
-0.321524
-0.000197584
-0.291761
-0.000201886
-0.264785
-0.000203868
-0.240282
-0.000202483
-0.218036
-0.00019847
-0.19784
-0.000192389
-0.179503
-0.000185351
-0.162854
-0.00017835
-0.147743
-0.000171947
-0.134026
-0.000166109
-0.121574
-0.000160243
-0.110274
-0.000153544
-0.10002
-0.000145173
-0.0907133
-0.000134637
-0.0822687
-0.000121794
-0.0745987
-0.000106652
-0.0676473
-8.92121e-05
-0.0613325
-6.97772e-05
-0.0556083
-4.75296e-05
-0.0504129
-1.88795e-05
-0.473735
-0.000135129
-0.429995
-0.000143242
-0.390351
-0.000167605
-0.354228
-0.000175796
-0.321525
-0.000186496
-0.291767
-0.000191753
-0.264792
-0.000194859
-0.240291
-0.000194609
-0.218047
-0.000191585
-0.197852
-0.00018617
-0.179516
-0.000179475
-0.162867
-0.000172572
-0.147755
-0.000166335
-0.134037
-0.000160961
-0.121584
-0.000156042
-0.110284
-0.000150743
-0.100029
-0.000144103
-0.090723
-0.000135455
-0.0822788
-0.000124461
-0.0746094
-0.00011109
-0.0676585
-9.54282e-05
-0.0613443
-7.75079e-05
-0.0556203
-5.76712e-05
-0.0504265
-3.38764e-05
-0.0457095
-5.47926e-06
-0.473705
-0.000123163
-0.429999
-0.000131708
-0.390339
-0.000155579
-0.354231
-0.000164291
-0.321525
-0.000175551
-0.291772
-0.000181661
-0.264798
-0.00018576
-0.240299
-0.000186609
-0.218057
-0.000184583
-0.197863
-0.000179909
-0.179529
-0.000173552
-0.16288
-0.000166685
-0.147767
-0.000160358
-0.134048
-0.000155122
-0.121594
-0.000150787
-0.110293
-0.00014661
-0.100038
-0.00014161
-0.0907321
-0.000134964
-0.0822884
-0.000125929
-0.0746196
-0.000114353
-0.0676693
-0.000100351
-0.0613556
-8.41169e-05
-0.0556322
-6.56603e-05
-0.0504385
-4.57308e-05
-0.045723
-2.04957e-05
-0.0414451
7.26485e-06
-0.473677
-0.000111987
-0.430001
-0.000120849
-0.390327
-0.000144072
-0.354234
-0.000153145
-0.321525
-0.000164885
-0.291776
-0.000171653
-0.264803
-0.000176667
-0.240306
-0.000178523
-0.218066
-0.000177491
-0.197874
-0.000173585
-0.179541
-0.000167631
-0.162893
-0.000160756
-0.147779
-0.000154226
-0.13406
-0.000148845
-0.121605
-0.000144773
-0.110302
-0.000141414
-0.100047
-0.000137795
-0.0907409
-0.000132899
-0.0822974
-0.000125849
-0.0746292
-0.000116209
-0.0676796
-0.000104004
-0.0613665
-8.94234e-05
-0.0556435
-7.27311e-05
-0.0504503
-5.39603e-05
-0.0457348
-3.39186e-05
-0.0414584
-7.1736e-06
-0.0375768
1.96887e-05
-0.473651
-0.000101612
-0.430002
-0.000110647
-0.390314
-0.000133126
-0.354235
-0.000142437
-0.321523
-0.000154474
-0.291779
-0.000161835
-0.264807
-0.000167582
-0.240313
-0.000170394
-0.218074
-0.000170326
-0.197885
-0.000167257
-0.179553
-0.000161773
-0.162905
-0.000154932
-0.147792
-0.00014808
-0.134072
-0.000142328
-0.121615
-0.000138134
-0.110312
-0.000135204
-0.100056
-0.000132621
-0.0907494
-0.000129286
-0.0823061
-0.000124211
-0.0746383
-0.0001168
-0.0676893
-0.000106513
-0.0613769
-9.36291e-05
-0.0556546
-7.84339e-05
-0.0504617
-6.12859e-05
-0.0457465
-4.21923e-05
-0.0414699
-2.2413e-05
-0.0375897
5.58121e-06
-0.034067
3.116e-05
-0.473627
-9.20161e-05
-0.430003
-0.000101112
-0.390302
-0.00012273
-0.354236
-0.000132202
-0.321521
-0.000144405
-0.291781
-0.000152203
-0.264811
-0.00015863
-0.240318
-0.000162244
-0.218081
-0.000163123
-0.197894
-0.000160894
-0.179564
-0.000155978
-0.162918
-0.000149238
-0.147805
-0.000142059
-0.134084
-0.000135754
-0.121626
-0.000131156
-0.110322
-0.000128264
-0.100065
-0.000126377
-0.0907577
-0.000124367
-0.0823143
-0.000121105
-0.0746468
-0.000115693
-0.0676985
-0.000107555
-0.0613868
-9.65139e-05
-0.0556652
-8.30019e-05
-0.0504729
-6.73125e-05
-0.0457579
-4.98886e-05
-0.0414814
-3.0767e-05
-0.0376008
-1.12793e-05
-0.0340793
1.79093e-05
-0.0308832
4.19433e-05
-0.473604
-8.31738e-05
-0.430003
-9.22358e-05
-0.390291
-0.000112917
-0.354237
-0.000122436
-0.321519
-0.000134713
-0.291783
-0.000142829
-0.264813
-0.000149783
-0.240323
-0.00015416
-0.218088
-0.000155875
-0.197903
-0.000154539
-0.179575
-0.000150258
-0.16293
-0.000143738
-0.147818
-0.000136263
-0.134097
-0.000129311
-0.121638
-0.000124029
-0.110332
-0.000120805
-0.100074
-0.000119171
-0.0907659
-0.000118113
-0.0823222
-0.000116398
-0.074655
-0.000112939
-0.0677071
-0.000106977
-0.0613961
-9.83016e-05
-0.0556752
-8.65111e-05
-0.0504835
-7.23692e-05
-0.0457691
-5.62045e-05
-0.0414927
-3.85564e-05
-0.037612
-1.94367e-05
-0.0340899
-6.06697e-07
-0.0308948
2.9361e-05
-0.0279957
5.15084e-05
-0.473584
-7.50652e-05
-0.430002
-8.39933e-05
-0.390279
-0.000103689
-0.354236
-0.000113172
-0.321516
-0.000125403
-0.291784
-0.000133764
-0.264815
-0.000141128
-0.240326
-0.000146129
-0.218093
-0.000148665
-0.19791
-0.000148149
-0.179585
-0.000144602
-0.162942
-0.000138409
-0.147831
-0.00013075
-0.13411
-0.000123131
-0.12165
-0.000116983
-0.110343
-0.00011307
-0.100083
-0.000111302
-0.0907743
-0.000110799
-0.08233
-0.000110349
-0.0746627
-0.000108708
-0.0677152
-0.000104901
-0.0614048
-9.83194e-05
-0.0556846
-8.87775e-05
-0.0504937
-7.62288e-05
-0.0457798
-6.15888e-05
-0.0415038
-4.5119e-05
-0.0376231
-2.74596e-05
-0.0341008
-8.68256e-06
-0.0309047
9.42965e-06
-0.0280063
4.00238e-05
-0.0253763
6.00073e-05
-0.473565
-6.76239e-05
-0.430001
-7.63793e-05
-0.390268
-9.50381e-05
-0.354236
-0.000104417
-0.321512
-0.00011651
-0.291784
-0.000125004
-0.264816
-0.000132701
-0.240329
-0.000138215
-0.218098
-0.00014146
-0.197917
-0.000141799
-0.179594
-0.000138982
-0.162953
-0.000133267
-0.147844
-0.000125544
-0.134123
-0.000117316
-0.121663
-0.000110191
-0.110355
-0.000105319
-0.100093
-0.000102989
-0.090783
-0.000102613
-0.0823378
-0.000103015
-0.0746701
-0.000102891
-0.0677228
-0.000101073
-0.0614129
-9.67147e-05
-0.0556935
-8.9382e-05
-0.0505033
-7.92817e-05
-0.0457901
-6.60104e-05
-0.0415145
-5.09057e-05
-0.0376341
-3.418e-05
-0.0341116
-1.65939e-05
-0.0309151
1.79168e-06
-0.0280156
1.88501e-05
-0.0253859
4.95244e-05
-0.0230011
6.71346e-05
-0.473547
-6.08384e-05
-0.429999
-6.93321e-05
-0.390257
-8.69713e-05
-0.354234
-9.61679e-05
-0.321509
-0.000108051
-0.291784
-0.000116596
-0.264816
-0.000124514
-0.240331
-0.000130467
-0.218102
-0.000134323
-0.197923
-0.000135432
-0.179602
-0.000133425
-0.162964
-0.000128247
-0.147856
-0.000120646
-0.134137
-0.000111923
-0.121677
-0.000103812
-0.110367
-9.77619e-05
-0.100104
-9.45062e-05
-0.0907921
-9.38052e-05
-0.0823457
-9.467e-05
-0.0746774
-9.57332e-05
-0.06773
-9.57091e-05
-0.0614205
-9.35589e-05
-0.0557017
-8.8584e-05
-0.0505122
-8.05032e-05
-0.0457997
-6.95327e-05
-0.0415249
-5.56181e-05
-0.0376448
-4.02276e-05
-0.0341223
-2.34497e-05
-0.0309255
-6.16977e-06
-0.0280254
1.14426e-05
-0.0253943
2.7306e-05
-0.0230094
5.78608e-05
-0.0208462
7.29089e-05
-0.473531
-5.46631e-05
-0.429997
-6.28546e-05
-0.390247
-7.94372e-05
-0.354233
-8.84359e-05
-0.321505
-0.000100026
-0.291784
-0.000108555
-0.264816
-0.000116606
-0.240333
-0.000122885
-0.218105
-0.000127289
-0.197929
-0.000129104
-0.17961
-0.000127877
-0.162974
-0.000123376
-0.147868
-0.000116012
-0.134151
-0.000106976
-0.121691
-9.79297e-05
-0.11038
-9.05984e-05
-0.100116
-8.61115e-05
-0.090802
-8.46596e-05
-0.082354
-8.55105e-05
-0.0746847
-8.73715e-05
-0.0677369
-8.88193e-05
-0.0614275
-8.86478e-05
-0.0557092
-8.59765e-05
-0.0505205
-8.02455e-05
-0.0458087
-7.13531e-05
-0.0415345
-5.99181e-05
-0.0376551
-4.53789e-05
-0.0341328
-2.97543e-05
-0.030936
-1.30106e-05
-0.0280353
3.82389e-06
-0.0254034
2.05689e-05
-0.0230169
3.50676e-05
-0.0208531
6.48764e-05
-0.0188932
7.72737e-05
-0.473517
-4.9057e-05
-0.429995
-5.6909e-05
-0.390238
-7.24501e-05
-0.354231
-8.11726e-05
-0.321501
-9.24561e-05
-0.291783
-0.000100891
-0.264816
-0.000109003
-0.240334
-0.000115519
-0.218108
-0.000120361
-0.197933
-0.00012283
-0.179617
-0.000122357
-0.162984
-0.000118566
-0.14788
-0.000111637
-0.134164
-0.000102443
-0.121705
-9.26223e-05
-0.110394
-8.3978e-05
-0.100128
-7.80384e-05
-0.0908126
-7.54342e-05
-0.0823629
-7.58121e-05
-0.0746922
-7.80268e-05
-0.0677436
-8.06224e-05
-0.0614342
-8.22057e-05
-0.0557161
-8.17182e-05
-0.050528
-7.84484e-05
-0.0458171
-7.1973e-05
-0.0415436
-6.23204e-05
-0.0376647
-5.01017e-05
-0.0341431
-3.51058e-05
-0.0309463
-1.94615e-05
-0.0280454
-2.98138e-06
-0.0254127
1.31606e-05
-0.0230252
2.86724e-05
-0.0208597
4.15766e-05
-0.0188987
7.046e-05
-0.0171224
8.00975e-05
-0.473504
-4.3988e-05
-0.429992
-5.14659e-05
-0.390229
-6.59821e-05
-0.354229
-7.43999e-05
-0.321497
-8.52962e-05
-0.291781
-9.36244e-05
-0.264815
-0.000101713
-0.240335
-0.000108391
-0.218109
-0.000113584
-0.197937
-0.000116614
-0.179623
-0.000116877
-0.162992
-0.000113825
-0.147891
-0.000107433
-0.134177
-9.83203e-05
-0.12172
-8.7876e-05
-0.110409
-7.80072e-05
-0.100142
-7.04828e-05
-0.0908243
-6.64108e-05
-0.0823724
-6.58578e-05
-0.0747
-6.79514e-05
-0.0677504
-7.12726e-05
-0.0614405
-7.43176e-05
-0.0557226
-7.57957e-05
-0.0505349
-7.48029e-05
-0.0458247
-7.08066e-05
-0.041552
-6.34905e-05
-0.0376739
-5.30621e-05
-0.0341527
-4.053e-05
-0.0309564
-2.50847e-05
-0.0280554
-9.49225e-06
-0.0254223
6.58913e-06
-0.0230338
2.1857e-05
-0.0208669
3.60328e-05
-0.0189042
4.73556e-05
-0.0171265
7.46919e-05
-0.015518
8.16656e-05
-0.473491
-3.93927e-05
-0.42999
-4.65022e-05
-0.39022
-6.00107e-05
-0.354227
-6.8094e-05
-0.321493
-7.8577e-05
-0.29178
-8.67185e-05
-0.264814
-9.47669e-05
-0.240335
-0.000101518
-0.218111
-0.000106983
-0.19794
-0.00011049
-0.179628
-0.000111417
-0.163
-0.000109133
-0.147902
-0.000103373
-0.13419
-9.45131e-05
-0.121734
-8.37076e-05
-0.110424
-7.27352e-05
-0.100156
-6.36128e-05
-0.0908369
-5.78198e-05
-0.0823829
-5.59249e-05
-0.0747085
-5.74084e-05
-0.0677573
-6.1007e-05
-0.0614466
-6.51487e-05
-0.0557285
-6.83668e-05
-0.0505412
-6.95374e-05
-0.0458316
-6.79422e-05
-0.0415597
-6.32089e-05
-0.0376824
-5.51116e-05
-0.0341619
-4.39839e-05
-0.030966
-3.08136e-05
-0.0280653
-1.51785e-05
-0.0254319
1.05931e-07
-0.0230428
1.55217e-05
-0.0208747
2.96788e-05
-0.0189104
4.22023e-05
-0.0171308
5.15748e-05
-0.0155207
7.73101e-05
-0.0140642
8.16824e-05
-0.473481
-3.52464e-05
-0.429987
-4.19625e-05
-0.390212
-5.45217e-05
-0.354225
-6.22384e-05
-0.321489
-7.22794e-05
-0.291778
-8.02054e-05
-0.264813
-8.81269e-05
-0.240335
-9.49301e-05
-0.218112
-0.000100575
-0.197942
-0.000104482
-0.179632
-0.000106008
-0.163007
-0.000104461
-0.147911
-9.9423e-05
-0.134203
-9.09775e-05
-0.121749
-8.00263e-05
-0.11044
-6.81923e-05
-0.100171
-5.75206e-05
-0.0908507
-4.98804e-05
-0.0823944
-4.62942e-05
-0.0747177
-4.66998e-05
-0.0677647
-5.00769e-05
-0.0614527
-5.48897e-05
-0.0557341
-5.95382e-05
-0.0505469
-6.26869e-05
-0.0458377
-6.33723e-05
-0.0415666
-6.10386e-05
-0.03769
-5.54726e-05
-0.0341704
-4.65204e-05
-0.0309751
-3.47298e-05
-0.0280747
-2.14402e-05
-0.0254415
-5.60933e-06
-0.0230519
9.24149e-06
-0.020883
2.37879e-05
-0.0189173
3.66139e-05
-0.0171359
4.73797e-05
-0.0155238
5.51879e-05
-0.0140655
7.87896e-05
-0.0127472
8.07673e-05
-0.473471
-3.15301e-05
-0.429984
-3.78304e-05
-0.390205
-4.94612e-05
-0.354223
-5.68243e-05
-0.321484
-6.63938e-05
-0.291777
-7.40726e-05
-0.264811
-8.18335e-05
-0.240334
-8.85979e-05
-0.218112
-9.43949e-05
-0.197944
-9.86067e-05
-0.179636
-0.000100663
-0.163013
-9.98163e-05
-0.14792
-9.55245e-05
-0.134215
-8.76534e-05
-0.121763
-7.67837e-05
-0.110455
-6.43254e-05
-0.100187
-5.22894e-05
-0.0908654
-4.27467e-05
-0.0824071
-3.72123e-05
-0.0747279
-3.60992e-05
-0.0677726
-3.87588e-05
-0.061459
-4.3775e-05
-0.0557395
-4.94843e-05
-0.0505521
-5.43572e-05
-0.0458432
-5.71912e-05
-0.0415727
-5.72497e-05
-0.037697
-5.41361e-05
-0.0341781
-4.77706e-05
-0.0309837
-3.80707e-05
-0.0280838
-2.57014e-05
-0.0254508
-1.20027e-05
-0.0230612
3.6375e-06
-0.0208915
1.77516e-05
-0.0189247
3.11782e-05
-0.0171418
4.2514e-05
-0.0155278
5.13498e-05
-0.0140675
5.70563e-05
-0.0127471
7.86623e-05
-0.0115544
7.84437e-05
-0.473462
-2.81656e-05
-0.429982
-3.40976e-05
-0.390198
-4.48202e-05
-0.35422
-5.18016e-05
-0.32148
-6.09172e-05
-0.291775
-6.83128e-05
-0.264809
-7.58759e-05
-0.240334
-8.25632e-05
-0.218113
-8.84162e-05
-0.197946
-9.29014e-05
-0.179639
-9.53965e-05
-0.163018
-9.52038e-05
-0.147929
-9.1667e-05
-0.134226
-8.44626e-05
-0.121777
-7.38996e-05
-0.110471
-6.10834e-05
-0.100204
-4.79009e-05
-0.0908812
-3.65459e-05
-0.082421
-2.88951e-05
-0.0747392
-2.59053e-05
-0.0677814
-2.73549e-05
-0.0614657
-3.20727e-05
-0.0557449
-3.8397e-05
-0.0505569
-4.4662e-05
-0.0458481
-4.9471e-05
-0.0415781
-5.18276e-05
-0.0377031
-5.11354e-05
-0.0341851
-4.71355e-05
-0.0309915
-3.9904e-05
-0.0280924
-2.94061e-05
-0.0254599
-1.65712e-05
-0.0230702
-3.04324e-06
-0.0209004
1.23909e-05
-0.0189326
2.56075e-05
-0.0171483
3.76919e-05
-0.0155325
4.73391e-05
-0.0140703
5.41969e-05
-0.0127481
5.85848e-05
-0.0115532
7.77877e-05
-0.0104746
7.56286e-05
-0.473453
-2.51686e-05
-0.429979
-3.0687e-05
-0.390191
-4.05972e-05
-0.354218
-4.71667e-05
-0.321476
-5.58028e-05
-0.291773
-6.29285e-05
-0.264807
-7.0253e-05
-0.240333
-7.68221e-05
-0.218112
-8.26861e-05
-0.197947
-8.73406e-05
-0.179642
-9.02419e-05
-0.163023
-9.06256e-05
-0.147936
-8.78331e-05
-0.134236
-8.13655e-05
-0.12179
-7.12792e-05
-0.110487
-5.83871e-05
-0.10022
-4.43329e-05
-0.0908978
-3.13235e-05
-0.082436
-2.15225e-05
-0.0747517
-1.63618e-05
-0.0677911
-1.61468e-05
-0.061473
-2.00491e-05
-0.0557505
-2.65219e-05
-0.0505615
-3.38046e-05
-0.0458525
-4.03145e-05
-0.0415827
-4.48331e-05
-0.0377084
-4.64998e-05
-0.0341913
-4.49616e-05
-0.0309985
-4.00852e-05
-0.0281003
-3.20611e-05
-0.0254684
-2.09286e-05
-0.0230792
-7.75008e-06
-0.0209091
5.82209e-06
-0.0189408
2.05408e-05
-0.0171553
3.25562e-05
-0.015538
4.31253e-05
-0.0140739
5.10696e-05
-0.0127498
5.5971e-05
-0.0115532
5.82649e-05
-0.0104724
7.54113e-05
-0.00949654
7.1629e-05
-0.473446
-2.2464e-05
-0.429977
-2.76267e-05
-0.390185
-3.67105e-05
-0.354216
-4.29251e-05
-0.321472
-5.10529e-05
-0.291771
-5.78746e-05
-0.264805
-6.49701e-05
-0.240331
-7.13759e-05
-0.218112
-7.72034e-05
-0.197948
-8.19754e-05
-0.179644
-8.51773e-05
-0.163027
-8.61102e-05
-0.147943
-8.40122e-05
-0.134245
-7.83222e-05
-0.121803
-6.88536e-05
-0.110502
-5.61269e-05
-0.100237
-4.15129e-05
-0.090915
-2.70909e-05
-0.0824521
-1.51991e-05
-0.0747656
-7.70012e-06
-0.067802
-5.43229e-06
-0.0614811
-8.02048e-06
-0.0557564
-1.41282e-05
-0.0505661
-2.19865e-05
-0.0458564
-2.98495e-05
-0.0415868
-3.62938e-05
-0.037713
-4.02912e-05
-0.0341966
-4.118e-05
-0.0310048
-3.87132e-05
-0.0281075
-3.28762e-05
-0.0254764
-2.4028e-05
-0.0230877
-1.22662e-05
-0.0209178
1.0237e-06
-0.0189491
1.4011e-05
-0.0171628
2.801e-05
-0.0155441
3.86646e-05
-0.0140783
4.75157e-05
-0.0127522
5.36106e-05
-0.0115538
5.65559e-05
-0.0104714
5.80393e-05
-0.00949353
7.28191e-05
-0.00861038
6.76025e-05
-0.473439
-2.00435e-05
-0.429975
-2.4841e-05
-0.39018
-3.31997e-05
-0.354213
-3.8995e-05
-0.321469
-4.66796e-05
-0.291769
-5.31582e-05
-0.264803
-5.99863e-05
-0.24033
-6.62357e-05
-0.218111
-7.19747e-05
-0.197948
-7.68082e-05
-0.179646
-8.02522e-05
-0.163031
-8.16323e-05
-0.147948
-8.02183e-05
-0.134254
-7.52995e-05
-0.121814
-6.6556e-05
-0.110516
-5.42124e-05
-0.100254
-3.93367e-05
-0.0909327
-2.38083e-05
-0.0824692
-9.99395e-06
-0.0747807
-9.56525e-08
-0.0678143
4.52608e-06
-0.0614903
3.73288e-06
-0.0557629
-1.47886e-06
-0.0505707
-9.43481e-06
-0.0458601
-1.82825e-05
-0.0415902
-2.63914e-05
-0.0377168
-3.25209e-05
-0.0342011
-3.583e-05
-0.0310102
-3.57509e-05
-0.0281139
-3.23065e-05
-0.0254837
-2.55693e-05
-0.0230957
-1.60408e-05
-0.0209263
-3.9022e-06
-0.0189575
9.33013e-06
-0.0171705
2.18254e-05
-0.0155508
3.45443e-05
-0.0140834
4.36248e-05
-0.0127555
5.07629e-05
-0.0115552
5.51934e-05
-0.0104711
5.64142e-05
-0.00949183
5.59533e-05
-0.00860673
6.88793e-05
-0.00780861
6.26623e-05
-0.473433
-1.78834e-05
-0.429972
-2.23286e-05
-0.390174
-2.99822e-05
-0.354211
-3.54253e-05
-0.321465
-4.26002e-05
-0.291766
-4.87957e-05
-0.264801
-5.53117e-05
-0.240329
-6.13624e-05
-0.218111
-6.70147e-05
-0.197948
-7.185e-05
-0.179647
-7.54736e-05
-0.163034
-7.724e-05
-0.147954
-7.6421e-05
-0.134262
-7.22926e-05
-0.121825
-6.43275e-05
-0.11053
-5.25492e-05
-0.100271
-3.76982e-05
-0.0909507
-2.1389e-05
-0.0824871
-5.90846e-06
-0.074797
6.3339e-06
-0.0678279
1.35081e-05
-0.0615007
1.49164e-05
-0.0557703
1.11079e-05
-0.0505758
3.56695e-06
-0.0458638
-5.82176e-06
-0.0415933
-1.52553e-05
-0.0377199
-2.32699e-05
-0.0342048
-2.88284e-05
-0.0310148
-3.12756e-05
-0.0281194
-3.02102e-05
-0.0254903
-2.57402e-05
-0.0231032
-1.80691e-05
-0.0209343
-7.90972e-06
-0.0189657
4.49525e-06
-0.0171784
1.72944e-05
-0.0155577
2.86978e-05
-0.0140891
4.02217e-05
-0.0127595
4.76522e-05
-0.0115574
5.29456e-05
-0.0104715
5.56212e-05
-0.00949062
5.51324e-05
-0.00860441
5.44609e-05
-0.00780448
6.52641e-05
-0.00708128
5.80617e-05
-0.473428
-1.59462e-05
-0.42997
-2.007e-05
-0.39017
-2.70622e-05
-0.354209
-3.21324e-05
-0.321462
-3.88733e-05
-0.291764
-4.47046e-05
-0.264799
-5.0968e-05
-0.240327
-5.67708e-05
-0.21811
-6.22882e-05
-0.197948
-6.71195e-05
-0.179648
-7.08548e-05
-0.163036
-7.29401e-05
-0.147958
-7.26602e-05
-0.134269
-6.92596e-05
-0.121835
-6.21367e-05
-0.110544
-5.10506e-05
-0.100287
-3.64827e-05
-0.0909686
-1.97283e-05
-0.0825056
-2.89654e-06
-0.0748144
1.15222e-05
-0.0678429
2.1321e-05
-0.0615124
2.52505e-05
-0.0557787
2.33433e-05
-0.0505814
1.67608e-05
-0.0458675
7.32018e-06
-0.041596
-3.06496e-06
-0.0377224
-1.2717e-05
-0.0342077
-2.037e-05
-0.0310184
-2.518e-05
-0.0281241
-2.66464e-05
-0.0254961
-2.44208e-05
-0.02311
-1.89415e-05
-0.0209419
-1.04966e-05
-0.0189737
3.99318e-08
-0.0171864
1.23405e-05
-0.0155651
2.45304e-05
-0.0140952
3.48939e-05
-0.0127642
4.47108e-05
-0.0115603
5.04308e-05
-0.0104726
5.40822e-05
-0.00949012
5.5364e-05
-0.00860248
5.35605e-05
-0.00780167
5.11471e-05
-0.00707684
6.04545e-05
-0.00642302
5.27574e-05
-0.473423
-1.42172e-05
-0.429968
-1.80291e-05
-0.390165
-2.44215e-05
-0.354207
-2.91261e-05
-0.321458
-3.5413e-05
-0.291762
-4.09502e-05
-0.264797
-4.68728e-05
-0.240326
-5.24865e-05
-0.218109
-5.78136e-05
-0.197948
-6.25857e-05
-0.179649
-6.64187e-05
-0.163039
-6.87483e-05
-0.147962
-6.89404e-05
-0.134276
-6.62266e-05
-0.121845
-5.9926e-05
-0.110556
-4.96545e-05
-0.100302
-3.55773e-05
-0.0909864
-1.87011e-05
-0.0825245
-8.70137e-07
-0.0748328
1.54667e-05
-0.0678592
2.78508e-05
-0.0615256
3.45189e-05
-0.0557884
3.49413e-05
-0.0505879
2.98468e-05
-0.0458716
2.08547e-05
-0.0415986
9.95324e-06
-0.0377245
-9.97917e-07
-0.0342099
-1.05126e-05
-0.0310213
-1.75279e-05
-0.0281279
-2.13853e-05
-0.025501
-2.17461e-05
-0.023116
-1.84218e-05
-0.0209489
-1.19578e-05
-0.0189814
-2.80528e-06
-0.0171942
7.93542e-06
-0.0155725
1.99364e-05
-0.0141018
3.10797e-05
-0.0127693
3.99732e-05
-0.0115639
4.83146e-05
-0.0104745
5.2336e-05
-0.00949032
5.4244e-05
-0.0086012
5.40481e-05
-0.00779917
5.0908e-05
-0.00707367
4.88999e-05
-0.00641839
5.64208e-05
-0.00582628
4.80644e-05
-0.473419
-1.26775e-05
-0.429966
-1.6195e-05
-0.390161
-2.20213e-05
-0.354205
-2.63916e-05
-0.321455
-3.22349e-05
-0.29176
-3.74459e-05
-0.264794
-4.3098e-05
-0.240324
-4.8428e-05
-0.218108
-5.36206e-05
-0.197947
-5.82707e-05
-0.179649
-6.21385e-05
-0.16304
-6.46898e-05
-0.147966
-6.52765e-05
-0.134281
-6.31912e-05
-0.121853
-5.76997e-05
-0.110568
-4.82818e-05
-0.100317
-3.48873e-05
-0.0910038
-1.81757e-05
-0.0825434
2.8912e-07
-0.0748519
1.82147e-05
-0.0678767
3.30184e-05
-0.0615403
4.25244e-05
-0.0557995
4.56137e-05
-0.0505955
4.25043e-05
-0.0458763
3.45233e-05
-0.0416014
2.35997e-05
-0.0377262
1.17295e-05
-0.0342115
6.09071e-07
-0.0310233
-8.47894e-06
-0.0281308
-1.46616e-05
-0.0255049
-1.74482e-05
-0.0231212
-1.66325e-05
-0.0209552
-1.20926e-05
-0.0189886
-4.78876e-06
-0.0172018
4.77395e-06
-0.01558
1.53519e-05
-0.0141086
2.66631e-05
-0.012775
3.6695e-05
-0.011568
4.41441e-05
-0.010477
5.0617e-05
-0.00949117
5.30548e-05
-0.00860055
5.36119e-05
-0.00779724
5.24294e-05
-0.00707073
4.84454e-05
-0.00641498
4.48366e-05
-0.0058216
5.12722e-05
-0.00528536
4.28792e-05
-0.473415
-1.1294e-05
-0.429964
-1.45507e-05
-0.390158
-1.98526e-05
-0.354203
-2.38913e-05
-0.321452
-2.93271e-05
-0.291758
-3.42113e-05
-0.264792
-3.9556e-05
-0.240323
-4.46727e-05
-0.218106
-4.96293e-05
-0.197947
-5.42086e-05
-0.17965
-5.80398e-05
-0.163042
-6.07418e-05
-0.147969
-6.16936e-05
-0.134287
-6.01633e-05
-0.121861
-5.54435e-05
-0.110579
-4.69093e-05
-0.100331
-3.43106e-05
-0.0910207
-1.80285e-05
-0.0825623
7.19092e-07
-0.0748714
1.9863e-05
-0.0678953
3.68279e-05
-0.0615564
4.91384e-05
-0.0558121
5.51441e-05
-0.0506044
5.44681e-05
-0.0458818
4.80355e-05
-0.0416045
3.76086e-05
-0.0377279
2.52302e-05
-0.0342126
1.28258e-05
-0.0310246
1.904e-06
-0.0281328
-6.47027e-06
-0.025508
-1.15973e-05
-0.0231255
-1.31553e-05
-0.0209607
-1.1117e-05
-0.0189952
-5.5539e-06
-0.0172091
2.44024e-06
-0.0155874
1.22188e-05
-0.0141156
2.23937e-05
-0.0127811
3.28193e-05
-0.0115727
4.13344e-05
-0.0104801
4.71718e-05
-0.00949268
5.21691e-05
-0.00860051
5.30972e-05
-0.00779587
5.21821e-05
-0.00706827
4.9879e-05
-0.00641172
4.49443e-05
-0.00581804
4.22631e-05
-0.00528071
4.725e-05
-0.00479492
3.84092e-05
-0.473411
-1.00686e-05
-0.429963
-1.30624e-05
-0.390154
-1.78983e-05
-0.354201
-2.162e-05
-0.32145
-2.66522e-05
-0.291756
-3.12375e-05
-0.26479
-3.6271e-05
-0.240321
-4.11328e-05
-0.218105
-4.5922e-05
-0.197946
-5.03217e-05
-0.17965
-5.41606e-05
-0.163043
-5.69333e-05
-0.147971
-5.81728e-05
-0.134291
-5.7165e-05
-0.121868
-5.31568e-05
-0.110588
-4.55031e-05
-0.100344
-3.37887e-05
-0.0910368
-1.8134e-05
-0.0825809
5.64924e-07
-0.0748913
2.05366e-05
-0.0679148
3.93258e-05
-0.0615739
5.42862e-05
-0.0558263
6.33155e-05
-0.0506147
6.54479e-05
-0.0458884
6.10696e-05
-0.0416081
5.16792e-05
-0.0377296
3.93061e-05
-0.0342134
2.60044e-05
-0.0310253
1.35035e-05
-0.028134
3.0939e-06
-0.0255101
-4.3516e-06
-0.0231288
-8.28864e-06
-0.0209654
-8.57295e-06
-0.019001
-5.33849e-06
-0.0172158
1.23502e-06
-0.0155946
9.61213e-06
-0.0141226
1.92026e-05
-0.0127873
2.86125e-05
-0.0115779
3.78459e-05
-0.0104838
4.49702e-05
-0.00949474
4.92253e-05
-0.00860108
5.24611e-05
-0.00779504
5.2128e-05
-0.00706631
5.0274e-05
-0.00640887
4.74165e-05
-0.00581458
4.20765e-05
-0.0052771
3.79377e-05
-0.00479037
4.22035e-05
-0.00435023
3.35809e-05
-0.473408
-8.96419e-06
-0.429961
-1.17368e-05
-0.390151
-1.61207e-05
-0.3542
-1.9562e-05
-0.321447
-2.42086e-05
-0.291755
-2.84877e-05
-0.264788
-3.32365e-05
-0.24032
-3.78361e-05
-0.218104
-4.24115e-05
-0.197945
-4.66968e-05
-0.17965
-5.04271e-05
-0.163044
-5.33051e-05
-0.147973
-5.47444e-05
-0.134295
-5.41793e-05
-0.121874
-5.08543e-05
-0.110598
-4.40475e-05
-0.100356
-3.32643e-05
-0.0910522
-1.83966e-05
-0.082599
-3.13231e-08
-0.0749111
2.03892e-05
-0.0679349
4.0613e-05
-0.0615925
5.79702e-05
-0.055842
7.00092e-05
-0.0506265
7.52029e-05
-0.0458963
7.33623e-05
-0.0416126
6.55606e-05
-0.0377316
5.37083e-05
-0.034214
3.99323e-05
-0.0310254
2.6145e-05
-0.0281344
1.39073e-05
-0.0255113
4.30635e-06
-0.0231312
-1.97805e-06
-0.0209691
-4.55925e-06
-0.019006
-3.50753e-06
-0.0172219
8.16373e-07
-0.0156014
8.02929e-06
-0.0141295
1.65336e-05
-0.0127938
2.57123e-05
-0.0115833
3.41579e-05
-0.0104879
4.21035e-05
-0.00949741
4.75117e-05
-0.00860218
5.03096e-05
-0.00779477
5.22585e-05
-0.00706482
5.07298e-05
-0.00640643
4.77385e-05
-0.00581145
4.41301e-05