/*--------------------------------*- C++ -*----------------------------------*\
  =========                 |
  \\      /  F ield         | OpenFOAM: The Open Source CFD Toolbox
   \\    /   O peration     | Website:  https://openfoam.org
    \\  /    A nd           | Version:  dev
     \\/     M anipulation  |
\*---------------------------------------------------------------------------*/
FoamFile
{
    version     2.0;
    format      ascii;
    class       volVectorField;
    location    "75";
    object      U;
}
// * * * * * * * * * * * * * * * * * * * * * * * * * * * * * * * * * * * * * //

dimensions      [0 1 -1 0 0 0 0];

internalField   nonuniform List<vector> 
29380
(
(51.1807 -0.115286 0)
(51.1809 -0.12339 0)
(51.0534 -0.0113042 0)
(51.1809 -0.128451 0)
(51.0585 -0.0133455 0)
(51.1232 -0.0877455 0)
(51.1806 -0.134755 0)
(51.0615 -0.0151882 0)
(51.1257 -0.0932371 0)
(51.0786 -0.0245532 0)
(51.1797 -0.141021 0)
(51.0648 -0.0177697 0)
(51.1284 -0.0964976 0)
(51.0844 -0.0277595 0)
(51.099 -0.0644566 0)
(51.1782 -0.147322 0)
(51.0681 -0.0207761 0)
(51.1312 -0.100684 0)
(51.0877 -0.0303589 0)
(51.1029 -0.0685384 0)
(51.0867 -0.0311388 0)
(51.1762 -0.153467 0)
(51.0714 -0.0241392 0)
(51.1338 -0.104921 0)
(51.0914 -0.0338393 0)
(51.1064 -0.0710271 0)
(51.0929 -0.0345766 0)
(51.0907 -0.0480289 0)
(51.1737 -0.159353 0)
(51.0748 -0.0277642 0)
(51.136 -0.109288 0)
(51.0948 -0.0376945 0)
(51.1103 -0.07435 0)
(51.0966 -0.0371318 0)
(51.0958 -0.0514692 0)
(51.0855 -0.031929 0)
(51.1706 -0.164875 0)
(51.0782 -0.0315659 0)
(51.138 -0.113663 0)
(51.0982 -0.0419102 0)
(51.1138 -0.0778428 0)
(51.1009 -0.0405349 0)
(51.0999 -0.053671 0)
(51.0919 -0.0352934 0)
(51.0833 -0.0370619 0)
(51.1672 -0.169956 0)
(51.0816 -0.0354688 0)
(51.1396 -0.117982 0)
(51.1015 -0.0463804 0)
(51.1173 -0.0815616 0)
(51.1048 -0.0442298 0)
(51.1042 -0.0566585 0)
(51.096 -0.037639 0)
(51.0894 -0.0402518 0)
(51.0774 -0.0293275 0)
(51.1634 -0.174529 0)
(51.0849 -0.0394008 0)
(51.1409 -0.122185 0)
(51.1047 -0.0510375 0)
(51.1205 -0.0854097 0)
(51.1085 -0.0482391 0)
(51.1083 -0.0598599 0)
(51.1007 -0.0407646 0)
(51.0938 -0.0423399 0)
(51.0841 -0.0325587 0)
(51.0706 -0.0295242 0)
(51.1593 -0.178544 0)
(51.0881 -0.0432996 0)
(51.1419 -0.126221 0)
(51.1077 -0.055809 0)
(51.1236 -0.0893372 0)
(51.1122 -0.0524728 0)
(51.1122 -0.0633197 0)
(51.105 -0.0441227 0)
(51.0986 -0.0451605 0)
(51.0886 -0.0347206 0)
(51.0774 -0.0326224 0)
(51.061 -0.0253828 0)
(51.155 -0.181966 0)
(51.0911 -0.0471059 0)
(51.1426 -0.130047 0)
(51.1106 -0.0606366 0)
(51.1264 -0.0932975 0)
(51.1157 -0.0568786 0)
(51.116 -0.0669537 0)
(51.1091 -0.0477516 0)
(51.103 -0.0481818 0)
(51.0937 -0.0375962 0)
(51.0821 -0.0346451 0)
(51.0681 -0.0285088 0)
(51.0491 -0.0239298 0)
(51.1504 -0.184771 0)
(51.094 -0.0507714 0)
(51.143 -0.133629 0)
(51.1133 -0.0654592 0)
(51.1291 -0.0972471 0)
(51.119 -0.061407 0)
(51.1195 -0.070724 0)
(51.1131 -0.0515719 0)
(51.1073 -0.0514432 0)
(51.0982 -0.0406595 0)
(51.0873 -0.0373455 0)
(51.073 -0.0305482 0)
(51.0564 -0.0269815 0)
(51.0341 -0.021239 0)
(51.1458 -0.186947 0)
(51.0968 -0.0542509 0)
(51.1431 -0.136939 0)
(51.1159 -0.0702279 0)
(51.1315 -0.101152 0)
(51.1221 -0.0660156 0)
(51.123 -0.0745926 0)
(51.1169 -0.0555434 0)
(51.1114 -0.0548691 0)
(51.1027 -0.0439477 0)
(51.092 -0.0402154 0)
(51.0783 -0.0332437 0)
(51.0614 -0.0289537 0)
(51.0418 -0.0242895 0)
(51.0163 -0.0194343 0)
(51.1411 -0.188493 0)
(51.0993 -0.0575107 0)
(51.1429 -0.139952 0)
(51.1182 -0.0748911 0)
(51.1337 -0.104977 0)
(51.1251 -0.0706644 0)
(51.1263 -0.07853 0)
(51.1206 -0.0596318 0)
(51.1153 -0.0584268 0)
(51.1069 -0.0473866 0)
(51.0965 -0.0432863 0)
(51.0831 -0.0360917 0)
(51.0669 -0.0315541 0)
(51.0469 -0.0262543 0)
(51.0242 -0.0224353 0)
(50.9951 -0.0173415 0)
(51.1364 -0.189417 0)
(51.1016 -0.0605197 0)
(51.1425 -0.142652 0)
(51.1204 -0.0794095 0)
(51.1357 -0.108695 0)
(51.1279 -0.0753166 0)
(51.1294 -0.0825099 0)
(51.1242 -0.0638095 0)
(51.1192 -0.0620847 0)
(51.111 -0.0509398 0)
(51.1008 -0.0464845 0)
(51.0878 -0.0391195 0)
(51.0719 -0.0342942 0)
(51.0526 -0.0288264 0)
(51.0295 -0.0243648 0)
(51.0035 -0.0203148 0)
(50.9709 -0.0155653 0)
(51.1317 -0.189736 0)
(51.1037 -0.0632581 0)
(51.1418 -0.145027 0)
(51.1224 -0.0837412 0)
(51.1374 -0.112276 0)
(51.1304 -0.0799369 0)
(51.1323 -0.0865084 0)
(51.1276 -0.0680558 0)
(51.1228 -0.0658237 0)
(51.115 -0.0545773 0)
(51.105 -0.0497742 0)
(51.0922 -0.0422531 0)
(51.0767 -0.0371945 0)
(51.0577 -0.0315242 0)
(51.0355 -0.0268774 0)
(51.0091 -0.0222295 0)
(50.9798 -0.0184855 0)
(50.9437 -0.013735 0)
(51.1271 -0.189471 0)
(51.1055 -0.0657085 0)
(51.1409 -0.147069 0)
(51.1242 -0.0878567 0)
(51.139 -0.1157 0)
(51.1328 -0.084492 0)
(51.135 -0.0905018 0)
(51.1308 -0.0723487 0)
(51.1264 -0.0696285 0)
(51.1188 -0.0582803 0)
(51.1091 -0.0531228 0)
(51.0965 -0.045451 0)
(51.0812 -0.0401795 0)
(51.0627 -0.0343648 0)
(51.0408 -0.0295068 0)
(51.0153 -0.0247035 0)
(50.9857 -0.0203781 0)
(50.9532 -0.0166026 0)
(50.9138 -0.0120325 0)
(51.1226 -0.188652 0)
(51.1072 -0.0678633 0)
(51.1399 -0.148773 0)
(51.1258 -0.0917242 0)
(51.1402 -0.118941 0)
(51.135 -0.0889505 0)
(51.1375 -0.0944673 0)
(51.1339 -0.076673 0)
(51.1299 -0.073493 0)
(51.1226 -0.0620374 0)
(51.113 -0.05651 0)
(51.1007 -0.0486785 0)
(51.0856 -0.0432052 0)
(51.0673 -0.0372715 0)
(51.046 -0.032265 0)
(51.021 -0.0272838 0)
(50.9924 -0.0227995 0)
(50.9596 -0.0184826 0)
(50.9241 -0.0148291 0)
(50.8814 -0.010311 0)
(51.1183 -0.187313 0)
(51.1086 -0.0697171 0)
(51.1386 -0.150139 0)
(51.1271 -0.0953245 0)
(51.1413 -0.121986 0)
(51.1369 -0.093283 0)
(51.1399 -0.0983816 0)
(51.1368 -0.0810071 0)
(51.1332 -0.0774057 0)
(51.1262 -0.0658449 0)
(51.1169 -0.0599286 0)
(51.1047 -0.0519108 0)
(51.0898 -0.0462289 0)
(51.0718 -0.0401942 0)
(51.0508 -0.0350747 0)
(51.0264 -0.0299827 0)
(50.9984 -0.0253195 0)
(50.9667 -0.0208532 0)
(50.9311 -0.016699 0)
(50.8927 -0.0130308 0)
(50.8469 -0.00864229 0)
(51.1141 -0.18549 0)
(51.1098 -0.0712723 0)
(51.1373 -0.15117 0)
(51.1284 -0.0986361 0)
(51.1421 -0.124817 0)
(51.1386 -0.0974626 0)
(51.142 -0.102222 0)
(51.1395 -0.0853338 0)
(51.1364 -0.0813631 0)
(51.1298 -0.0697051 0)
(51.1208 -0.0633775 0)
(51.1087 -0.0551341 0)
(51.0939 -0.0492197 0)
(51.0762 -0.0430854 0)
(51.0555 -0.0378818 0)
(51.0315 -0.0327228 0)
(51.0041 -0.0279511 0)
(50.9732 -0.0233122 0)
(50.9388 -0.0190072 0)
(50.9003 -0.0149022 0)
(50.8594 -0.0112706 0)
(50.8106 -0.00695484 0)
(51.1101 -0.183222 0)
(51.1108 -0.0725327 0)
(51.1359 -0.151871 0)
(51.1294 -0.101649 0)
(51.1428 -0.127423 0)
(51.1402 -0.101465 0)
(51.1439 -0.105965 0)
(51.142 -0.0896296 0)
(51.1394 -0.0853511 0)
(51.1333 -0.0736175 0)
(51.1246 -0.0668651 0)
(51.1127 -0.0583501 0)
(51.098 -0.0521601 0)
(51.0804 -0.0459039 0)
(51.0599 -0.0406297 0)
(51.0363 -0.0354455 0)
(51.0096 -0.0306187 0)
(50.9794 -0.02588 0)
(50.9458 -0.0213951 0)
(50.9087 -0.0171415 0)
(50.8678 -0.0131533 0)
(50.8244 -0.00948619 0)
(50.7726 -0.00529126 0)
(51.1063 -0.180553 0)
(51.1116 -0.0735079 0)
(51.1343 -0.15225 0)
(51.1302 -0.104352 0)
(51.1432 -0.129794 0)
(51.1415 -0.105271 0)
(51.1456 -0.109591 0)
(51.1443 -0.0938742 0)
(51.1422 -0.0893613 0)
(51.1367 -0.077585 0)
(51.1284 -0.0704037 0)
(51.1167 -0.0615686 0)
(51.1021 -0.0550435 0)
(51.0845 -0.0486213 0)
(51.0642 -0.0432684 0)
(51.041 -0.0380889 0)
(51.0148 -0.0332616 0)
(50.9853 -0.0284831 0)
(50.9527 -0.0238897 0)
(50.9165 -0.019449 0)
(50.877 -0.015312 0)
(50.8336 -0.0113964 0)
(50.7878 -0.00771391 0)
(50.733 -0.00361729 0)
(51.1027 -0.177523 0)
(51.1123 -0.0742089 0)
(51.1328 -0.152317 0)
(51.131 -0.106742 0)
(51.1435 -0.131926 0)
(51.1426 -0.10886 0)
(51.147 -0.113079 0)
(51.1464 -0.0980431 0)
(51.1449 -0.093374 0)
(51.14 -0.0816028 0)
(51.1321 -0.0740054 0)
(51.1207 -0.064808 0)
(51.1062 -0.0578796 0)
(51.0887 -0.0512251 0)
(51.0685 -0.0457591 0)
(51.0455 -0.0405897 0)
(51.0197 -0.0358094 0)
(50.9909 -0.0310597 0)
(50.9591 -0.0264238 0)
(50.924 -0.0218646 0)
(50.8856 -0.0175272 0)
(50.8438 -0.0134657 0)
(50.7979 -0.00966649 0)
(50.7496 -0.005929 0)
(50.6915 -0.00196646 0)
(51.0994 -0.174176 0)
(51.1128 -0.07465 0)
(51.1312 -0.152084 0)
(51.1315 -0.108816 0)
(51.1436 -0.133812 0)
(51.1435 -0.11222 0)
(51.1483 -0.116411 0)
(51.1483 -0.102115 0)
(51.1473 -0.0973744 0)
(51.1431 -0.0856666 0)
(51.1357 -0.0776817 0)
(51.1247 -0.0680933 0)
(51.1104 -0.0606893 0)
(51.0929 -0.0537162 0)
(51.0727 -0.0480755 0)
(51.0498 -0.0428952 0)
(51.0244 -0.038189 0)
(50.9962 -0.0335348 0)
(50.9653 -0.0289358 0)
(50.9312 -0.0243272 0)
(50.894 -0.0198513 0)
(50.8533 -0.0155773 0)
(50.8091 -0.0116369 0)
(50.7607 -0.00794139 0)
(50.7097 -0.00416068 0)
(50.6482 -0.000331342 0)
(51.0962 -0.170555 0)
(51.1131 -0.0748466 0)
(51.1296 -0.151564 0)
(51.1319 -0.110578 0)
(51.1436 -0.135452 0)
(51.1443 -0.115339 0)
(51.1494 -0.119573 0)
(51.1499 -0.106068 0)
(51.1496 -0.101338 0)
(51.146 -0.0897628 0)
(51.1393 -0.0814392 0)
(51.1287 -0.0714476 0)
(51.1147 -0.0635023 0)
(51.0972 -0.0561119 0)
(51.077 -0.0502083 0)
(51.0542 -0.0449678 0)
(51.029 -0.040336 0)
(51.0013 -0.0358225 0)
(50.9711 -0.0313459 0)
(50.938 -0.0267785 0)
(50.902 -0.0222341 0)
(50.8626 -0.017801 0)
(50.8197 -0.0136351 0)
(50.7729 -0.00980581 0)
(50.7217 -0.00624672 0)
(50.6677 -0.00240953 0)
(50.6026 0.00125843 0)
(51.0933 -0.1667 0)
(51.1134 -0.0748159 0)
(51.128 -0.150772 0)
(51.1322 -0.112032 0)
(51.1435 -0.136844 0)
(51.1449 -0.118209 0)
(51.1502 -0.122551 0)
(51.1514 -0.109882 0)
(51.1516 -0.105247 0)
(51.1488 -0.0938777 0)
(51.1427 -0.0852783 0)
(51.1327 -0.0748933 0)
(51.119 -0.0663556 0)
(51.1017 -0.0584443 0)
(51.0814 -0.052165 0)
(51.0585 -0.0467822 0)
(51.0334 -0.0421945 0)
(51.0061 -0.0378459 0)
(50.9766 -0.033559 0)
(50.9444 -0.0291368 0)
(50.9096 -0.0246208 0)
(50.8716 -0.0200964 0)
(50.83 -0.0157453 0)
(50.7846 -0.0116805 0)
(50.735 -0.00799969 0)
(50.6807 -0.00458106 0)
(50.6232 -0.000699425 0)
(50.5545 0.00279088 0)
(51.0906 -0.162653 0)
(51.1135 -0.0745755 0)
(51.1264 -0.149725 0)
(51.1324 -0.113186 0)
(51.1432 -0.137994 0)
(51.1454 -0.120824 0)
(51.151 -0.125334 0)
(51.1526 -0.113538 0)
(51.1535 -0.109076 0)
(51.1513 -0.0979895 0)
(51.146 -0.0891939 0)
(51.1367 -0.0784476 0)
(51.1234 -0.069287 0)
(51.1063 -0.0607554 0)
(51.086 -0.0539707 0)
(51.063 -0.0483323 0)
(51.0379 -0.0437236 0)
(51.0108 -0.0395354 0)
(50.9818 -0.0354883 0)
(50.9505 -0.031294 0)
(50.9167 -0.0269298 0)
(50.8801 -0.022416 0)
(50.84 -0.0179433 0)
(50.7961 -0.013668 0)
(50.7478 -0.00974328 0)
(50.695 -0.00621952 0)
(50.6371 -0.00296303 0)
(50.5759 0.000947743 0)
(50.5037 0.00425029 0)
(51.088 -0.158452 0)
(51.1135 -0.0741438 0)
(51.1248 -0.148438 0)
(51.1325 -0.11405 0)
(51.1429 -0.138901 0)
(51.1458 -0.123181 0)
(51.1515 -0.127915 0)
(51.1536 -0.117021 0)
(51.1551 -0.112805 0)
(51.1537 -0.102078 0)
(51.1491 -0.093173 0)
(51.1406 -0.0821192 0)
(51.1279 -0.0723293 0)
(51.1111 -0.0630941 0)
(51.0908 -0.0556694 0)
(51.0677 -0.0496324 0)
(51.0425 -0.0448997 0)
(51.0154 -0.0408308 0)
(50.9868 -0.0370474 0)
(50.9562 -0.0331564 0)
(50.9234 -0.0290425 0)
(50.8881 -0.0246818 0)
(50.8495 -0.0201871 0)
(50.8072 -0.0157586 0)
(50.7605 -0.0115956 0)
(50.709 -0.00782453 0)
(50.6524 -0.00448673 0)
(50.5906 -0.00140648 0)
(50.5254 0.00252262 0)
(50.45 0.0056108 0)
(51.0857 -0.154132 0)
(51.1135 -0.0735393 0)
(51.1233 -0.146931 0)
(51.1326 -0.114634 0)
(51.1424 -0.139573 0)
(51.146 -0.12528 0)
(51.1519 -0.130289 0)
(51.1545 -0.120319 0)
(51.1565 -0.116413 0)
(51.1558 -0.106118 0)
(51.1521 -0.0971983 0)
(51.1444 -0.0859094 0)
(51.1324 -0.075513 0)
(51.116 -0.0655152 0)
(51.0958 -0.0573162 0)
(51.0726 -0.0507155 0)
(51.0472 -0.04572 0)
(51.0201 -0.0416894 0)
(50.9916 -0.0381581 0)
(50.9616 -0.0346255 0)
(50.9297 -0.0308608 0)
(50.8956 -0.02676 0)
(50.8585 -0.0224073 0)
(50.8178 -0.0179195 0)
(50.7727 -0.0135681 0)
(50.7229 -0.00953367 0)
(50.6675 -0.00594889 0)
(50.6068 -0.002817 0)
(50.5408 8.39932e-05 0)
(50.4715 0.00399106 0)
(50.3935 0.00686493 0)
(51.0835 -0.149729 0)
(51.1133 -0.0727802 0)
(51.1218 -0.14522 0)
(51.1325 -0.114951 0)
(51.1419 -0.140013 0)
(51.1461 -0.127122 0)
(51.1522 -0.132451 0)
(51.1552 -0.12342 0)
(51.1576 -0.119883 0)
(51.1577 -0.110086 0)
(51.1548 -0.101246 0)
(51.1481 -0.0898099 0)
(51.1369 -0.078856 0)
(51.1211 -0.0680648 0)
(51.1011 -0.0589752 0)
(51.0778 -0.0516378 0)
(51.0521 -0.046206 0)
(51.0248 -0.0420896 0)
(50.9964 -0.0387598 0)
(50.9667 -0.0356041 0)
(50.9356 -0.0322726 0)
(50.9026 -0.0285519 0)
(50.8669 -0.0244565 0)
(50.8278 -0.0200942 0)
(50.7845 -0.0156333 0)
(50.7363 -0.011376 0)
(50.6826 -0.00750296 0)
(50.6229 -0.00413086 0)
(50.5576 -0.00121767 0)
(50.4873 0.00148265 0)
(50.4142 0.00535568 0)
(50.3344 0.00798258 0)
(51.0816 -0.145272 0)
(51.1132 -0.0718848 0)
(51.1204 -0.143325 0)
(51.1324 -0.115017 0)
(51.1414 -0.140231 0)
(51.1462 -0.12871 0)
(51.1524 -0.1344 0)
(51.1558 -0.126318 0)
(51.1587 -0.123198 0)
(51.1593 -0.113958 0)
(51.1573 -0.105292 0)
(51.1515 -0.0938048 0)
(51.1413 -0.0823682 0)
(51.1262 -0.0707875 0)
(51.1067 -0.0607162 0)
(51.0833 -0.0524687 0)
(51.0574 -0.0463996 0)
(51.0298 -0.0420303 0)
(51.0012 -0.0388074 0)
(50.9717 -0.036014 0)
(50.9412 -0.0331648 0)
(50.9091 -0.0299379 0)
(50.8747 -0.0262365 0)
(50.8372 -0.022118 0)
(50.7957 -0.0177555 0)
(50.7493 -0.013334 0)
(50.6972 -0.00920322 0)
(50.6391 -0.00552168 0)
(50.5747 -0.00238053 0)
(50.5046 0.000283148 0)
(50.4301 0.00279345 0)
(50.3536 0.00657618 0)
(50.2732 0.00897008 0)
(51.0798 -0.140791 0)
(51.1129 -0.0708698 0)
(51.119 -0.141265 0)
(51.1322 -0.114844 0)
(51.1408 -0.140233 0)
(51.1461 -0.130048 0)
(51.1524 -0.136135 0)
(51.1562 -0.129005 0)
(51.1595 -0.126348 0)
(51.1608 -0.117715 0)
(51.1596 -0.109309 0)
(51.1548 -0.0978713 0)
(51.1456 -0.0860458 0)
(51.1315 -0.0737127 0)
(51.1125 -0.0626029 0)
(51.0893 -0.0532882 0)
(51.0631 -0.0463666 0)
(51.0351 -0.0415387 0)
(51.0062 -0.0382791 0)
(50.9767 -0.0357891 0)
(50.9465 -0.0334448 0)
(50.9151 -0.0307867 0)
(50.8818 -0.0276206 0)
(50.8459 -0.0238958 0)
(50.8061 -0.019755 0)
(50.7617 -0.0153963 0)
(50.7115 -0.011036 0)
(50.655 -0.00706471 0)
(50.5919 -0.00359743 0)
(50.5224 -0.00072703 0)
(50.4475 0.00168758 0)
(50.3693 0.00398879 0)
(50.29 0.00766995 0)
(50.2107 0.00979239 0)
(51.0781 -0.13631 0)
(51.1127 -0.0697525 0)
(51.1177 -0.139058 0)
(51.132 -0.11445 0)
(51.1402 -0.140027 0)
(51.146 -0.131141 0)
(51.1524 -0.137659 0)
(51.1565 -0.131479 0)
(51.1602 -0.129318 0)
(51.162 -0.121335 0)
(51.1616 -0.113268 0)
(51.1579 -0.101982 0)
(51.1498 -0.0898769 0)
(51.1367 -0.0768603 0)
(51.1184 -0.0646945 0)
(51.0956 -0.0541829 0)
(51.0693 -0.0461921 0)
(51.0409 -0.0406653 0)
(51.0115 -0.0371741 0)
(50.9817 -0.0348796 0)
(50.9516 -0.0330245 0)
(50.9207 -0.030994 0)
(50.8884 -0.0284606 0)
(50.8538 -0.0252998 0)
(50.8158 -0.0215371 0)
(50.7732 -0.0173675 0)
(50.7251 -0.0130249 0)
(50.6706 -0.00875633 0)
(50.609 -0.00497086 0)
(50.5406 -0.00176439 0)
(50.4658 0.00083031 0)
(50.3864 0.00296456 0)
(50.3051 0.0050813 0)
(50.2242 0.00859413 0)
(50.1478 0.0104558 0)
(51.0766 -0.131853 0)
(51.1124 -0.0685484 0)
(51.1165 -0.136724 0)
(51.1317 -0.113849 0)
(51.1396 -0.139623 0)
(51.1458 -0.131996 0)
(51.1523 -0.138972 0)
(51.1567 -0.133738 0)
(51.1607 -0.132104 0)
(51.1631 -0.124804 0)
(51.1635 -0.117145 0)
(51.1607 -0.106107 0)
(51.1538 -0.0938385 0)
(51.1418 -0.0802335 0)
(51.1245 -0.0670352 0)
(51.1022 -0.0552361 0)
(51.0759 -0.0459736 0)
(51.0471 -0.0394875 0)
(51.0171 -0.0355228 0)
(50.9869 -0.033261 0)
(50.9566 -0.0318333 0)
(50.9261 -0.0304559 0)
(50.8945 -0.028646 0)
(50.8611 -0.026161 0)
(50.8246 -0.0229759 0)
(50.784 -0.0191546 0)
(50.7379 -0.014963 0)
(50.6855 -0.0106538 0)
(50.6259 -0.00649855 0)
(50.5588 -0.00295219 0)
(50.4847 -1.85044e-05 0)
(50.4048 0.00225767 0)
(50.3215 0.00412632 0)
(50.2382 0.00603899 0)
(50.1572 0.00936991 0)
(50.0857 0.0109418 0)
(51.0752 -0.12744 0)
(51.1121 -0.0672728 0)
(51.1154 -0.134281 0)
(51.1314 -0.113058 0)
(51.1389 -0.139031 0)
(51.1456 -0.132621 0)
(51.1521 -0.140078 0)
(51.1568 -0.135782 0)
(51.1611 -0.134698 0)
(51.164 -0.128106 0)
(51.165 -0.120917 0)
(51.1632 -0.110215 0)
(51.1575 -0.097902 0)
(51.1468 -0.0838248 0)
(51.1307 -0.0696563 0)
(51.1091 -0.0565241 0)
(51.083 -0.0458172 0)
(51.0539 -0.0381057 0)
(51.0233 -0.0333857 0)
(50.9924 -0.0309344 0)
(50.9617 -0.0298136 0)
(50.9312 -0.0290764 0)
(50.9002 -0.0280563 0)
(50.8677 -0.0263661 0)
(50.8326 -0.0238809 0)
(50.7938 -0.0206407 0)
(50.7498 -0.0167525 0)
(50.6996 -0.0125466 0)
(50.6422 -0.00828314 0)
(50.5769 -0.00429678 0)
(50.5039 -0.00100732 0)
(50.4242 0.00160019 0)
(50.3397 0.0035653 0)
(50.2533 0.00513731 0)
(50.1695 0.00687153 0)
(50.09 0.009969 0)
(50.0255 0.0112671 0)
(51.074 -0.123087 0)
(51.1118 -0.0659398 0)
(51.1143 -0.131747 0)
(51.1311 -0.112094 0)
(51.1382 -0.13826 0)
(51.1454 -0.133023 0)
(51.1518 -0.140981 0)
(51.1568 -0.137611 0)
(51.1614 -0.137098 0)
(51.1647 -0.131232 0)
(51.1664 -0.12456 0)
(51.1655 -0.114274 0)
(51.161 -0.102034 0)
(51.1517 -0.0876125 0)
(51.1368 -0.0725707 0)
(51.1162 -0.0581089 0)
(51.0906 -0.0458275 0)
(51.0613 -0.0366374 0)
(51.0301 -0.0308528 0)
(50.9984 -0.0279337 0)
(50.967 -0.026936 0)
(50.9362 -0.0267736 0)
(50.9054 -0.02658 0)
(50.8737 -0.025784 0)
(50.8399 -0.0241401 0)
(50.8027 -0.021606 0)
(50.7607 -0.0182922 0)
(50.7128 -0.0143298 0)
(50.6576 -0.0101186 0)
(50.5946 -0.00594107 0)
(50.5233 -0.00214265 0)
(50.4442 0.00082574 0)
(50.3591 0.0031007 0)
(50.2707 0.00471121 0)
(50.1827 0.00601076 0)
(50.1001 0.00756827 0)
(50.0241 0.0104229 0)
(49.9684 0.0114253 0)
(51.0728 -0.118808 0)
(51.1115 -0.0645622 0)
(51.1133 -0.129141 0)
(51.1308 -0.110972 0)
(51.1376 -0.137322 0)
(51.1451 -0.133211 0)
(51.1516 -0.141685 0)
(51.1567 -0.139227 0)
(51.1616 -0.139299 0)
(51.1653 -0.134172 0)
(51.1676 -0.128059 0)
(51.1676 -0.118257 0)
(51.1642 -0.106198 0)
(51.1563 -0.0915676 0)
(51.1428 -0.0757761 0)
(51.1234 -0.0600356 0)
(51.0985 -0.0461016 0)
(51.0693 -0.0352101 0)
(51.0376 -0.0280412 0)
(51.005 -0.024328 0)
(50.9727 -0.0232034 0)
(50.9413 -0.0234845 0)
(50.9104 -0.0241057 0)
(50.8792 -0.0242853 0)
(50.8463 -0.0236116 0)
(50.8106 -0.0219434 0)
(50.7706 -0.0193292 0)
(50.7249 -0.0159263 0)
(50.6722 -0.0118821 0)
(50.6115 -0.00769792 0)
(50.5423 -0.00361839 0)
(50.4646 -8.09003e-05 0)
(50.3796 0.00254813 0)
(50.2898 0.00443372 0)
(50.1988 0.00570992 0)
(50.1109 0.006731 0)
(50.0315 0.0081397 0)
(49.9607 0.0107152 0)
(49.9154 0.011422 0)
(51.0718 -0.114617 0)
(51.1112 -0.0631515 0)
(51.1123 -0.126479 0)
(51.1305 -0.10971 0)
(51.1369 -0.136227 0)
(51.1448 -0.133195 0)
(51.1512 -0.142195 0)
(51.1566 -0.140632 0)
(51.1616 -0.141302 0)
(51.1658 -0.136921 0)
(51.1686 -0.131397 0)
(51.1694 -0.122136 0)
(51.1672 -0.110357 0)
(51.1606 -0.0956531 0)
(51.1487 -0.0792549 0)
(51.1307 -0.0623292 0)
(51.1068 -0.0467213 0)
(51.0779 -0.033952 0)
(51.0458 -0.0250897 0)
(51.0122 -0.0202209 0)
(50.9789 -0.0186539 0)
(50.9466 -0.0191758 0)
(50.9153 -0.0205418 0)
(50.8842 -0.0217412 0)
(50.8521 -0.0221594 0)
(50.8176 -0.0215063 0)
(50.7793 -0.0197641 0)
(50.7358 -0.017041 0)
(50.6856 -0.0135311 0)
(50.6275 -0.0094223 0)
(50.5607 -0.00527471 0)
(50.4849 -0.00135169 0)
(50.4007 0.00189465 0)
(50.3103 0.00411018 0)
(50.2169 0.00561029 0)
(50.125 0.00653754 0)
(50.0391 0.0073148 0)
(49.9648 0.00858641 0)
(49.901 0.0108648 0)
(49.8673 0.0112719 0)
(51.0709 -0.11052 0)
(51.1109 -0.06172 0)
(51.1114 -0.123777 0)
(51.1301 -0.108324 0)
(51.1363 -0.134988 0)
(51.1444 -0.132984 0)
(51.1509 -0.142516 0)
(51.1564 -0.14183 0)
(51.1617 -0.143107 0)
(51.1661 -0.139474 0)
(51.1695 -0.134564 0)
(51.1711 -0.125889 0)
(51.1699 -0.114478 0)
(51.1647 -0.0998284 0)
(51.1544 -0.0829774 0)
(51.138 -0.0649955 0)
(51.1153 -0.0477488 0)
(51.087 -0.0329835 0)
(51.0547 -0.0221486 0)
(51.0204 -0.0157468 0)
(50.9858 -0.0133641 0)
(50.9524 -0.013849 0)
(50.9202 -0.015821 0)
(50.8889 -0.0180335 0)
(50.8572 -0.0196339 0)
(50.8238 -0.0201493 0)
(50.787 -0.0194441 0)
(50.7455 -0.0175837 0)
(50.6978 -0.014725 0)
(50.6424 -0.0111161 0)
(50.5783 -0.00693448 0)
(50.5048 -0.00287667 0)
(50.4222 0.000860597 0)
(50.3318 0.00372301 0)
(50.2368 0.00551227 0)
(50.1415 0.00659945 0)
(50.0506 0.0072119 0)
(49.9688 0.00775758 0)
(49.9015 0.00890034 0)
(49.8459 0.0108804 0)
(49.8246 0.0109967 0)
(51.07 -0.106528 0)
(51.1106 -0.0602758 0)
(51.1106 -0.121052 0)
(51.1298 -0.106828 0)
(51.1357 -0.133615 0)
(51.1441 -0.132589 0)
(51.1505 -0.142653 0)
(51.1562 -0.142826 0)
(51.1616 -0.144714 0)
(51.1663 -0.141829 0)
(51.1702 -0.137549 0)
(51.1725 -0.129496 0)
(51.1723 -0.118528 0)
(51.1685 -0.104052 0)
(51.1598 -0.0869042 0)
(51.1451 -0.0680215 0)
(51.1239 -0.0492235 0)
(51.0965 -0.0324093 0)
(51.0643 -0.0193721 0)
(51.0293 -0.0110653 0)
(50.9936 -0.00745087 0)
(50.9587 -0.00754486 0)
(50.9254 -0.00990349 0)
(50.8934 -0.0130601 0)
(50.8617 -0.0158965 0)
(50.829 -0.0177141 0)
(50.7937 -0.0182259 0)
(50.7541 -0.0173994 0)
(50.7087 -0.0153804 0)
(50.656 -0.0123826 0)
(50.5949 -0.00865647 0)
(50.5241 -0.00444111 0)
(50.4435 -0.000503605 0)
(50.3541 0.00296277 0)
(50.2583 0.00540498 0)
(50.1602 0.00671936 0)
(50.0648 0.00741081 0)
(49.977 0.00771889 0)
(49.9013 0.0080628 0)
(49.8426 0.00911725 0)
(49.7963 0.0107968 0)
(49.7875 0.0106519 0)
(51.0693 -0.102643 0)
(51.1104 -0.0588294 0)
(51.1098 -0.118316 0)
(51.1295 -0.10524 0)
(51.1351 -0.132122 0)
(51.1437 -0.13202 0)
(51.1501 -0.142615 0)
(51.156 -0.143623 0)
(51.1615 -0.146125 0)
(51.1665 -0.143984 0)
(51.1707 -0.140345 0)
(51.1737 -0.132942 0)
(51.1745 -0.122478 0)
(51.172 -0.108281 0)
(51.1649 -0.0909905 0)
(51.152 -0.0713786 0)
(51.1325 -0.0511618 0)
(51.1064 -0.0323119 0)
(51.0746 -0.0169069 0)
(51.0392 -0.00635248 0)
(51.0022 -0.00106563 0)
(50.9658 -0.000347167 0)
(50.931 -0.00278706 0)
(50.898 -0.00674296 0)
(50.8659 -0.0108185 0)
(50.8336 -0.0140451 0)
(50.7993 -0.0159377 0)
(50.7614 -0.016344 0)
(50.7182 -0.01534 0)
(50.6683 -0.0131489 0)
(50.6101 -0.00998588 0)
(50.5424 -0.00617074 0)
(50.4644 -0.00193577 0)
(50.3765 0.00179443 0)
(50.2809 0.00494127 0)
(50.1809 0.0068883 0)
(50.0816 0.00772602 0)
(49.9882 0.00802734 0)
(49.9057 0.00807041 0)
(49.8379 0.00826214 0)
(49.7889 0.00923839 0)
(49.7525 0.0106559 0)
(49.756 0.0102004 0)
(51.0686 -0.0988694 0)
(51.1101 -0.0573872 0)
(51.1091 -0.115584 0)
(51.1291 -0.103572 0)
(51.1345 -0.13052 0)
(51.1434 -0.131288 0)
(51.1497 -0.142406 0)
(51.1557 -0.144226 0)
(51.1613 -0.147344 0)
(51.1665 -0.145939 0)
(51.1712 -0.142947 0)
(51.1747 -0.136212 0)
(51.1764 -0.126303 0)
(51.1752 -0.112479 0)
(51.1697 -0.0951883 0)
(51.1587 -0.0750263 0)
(51.141 -0.0535572 0)
(51.1164 -0.0327483 0)
(51.0855 -0.0148838 0)
(51.0499 -0.00179054 0)
(51.0119 0.00560953 0)
(50.9739 0.00761559 0)
(50.9373 0.00548575 0)
(50.9028 0.000966153 0)
(50.87 -0.00428339 0)
(50.8375 -0.00898926 0)
(50.8039 -0.0124144 0)
(50.7674 -0.0142434 0)
(50.7264 -0.0144684 0)
(50.6791 -0.0132535 0)
(50.6239 -0.0108554 0)
(50.5594 -0.00754475 0)
(50.4844 -0.00364259 0)
(50.3989 0.000533882 0)
(50.3041 0.00400092 0)
(50.2033 0.00674843 0)
(50.1009 0.00816418 0)
(50.0024 0.00851163 0)
(49.9134 0.00845323 0)
(49.8381 0.00829075 0)
(49.7796 0.00836997 0)
(49.741 0.00933023 0)
(49.7145 0.0104352 0)
(49.7296 0.00972667 0)
(51.068 -0.0952104 0)
(51.1098 -0.0559564 0)
(51.1085 -0.112868 0)
(51.1288 -0.101842 0)
(51.1339 -0.128822 0)
(51.143 -0.130406 0)
(51.1493 -0.142034 0)
(51.1554 -0.14464 0)
(51.1611 -0.148373 0)
(51.1666 -0.147696 0)
(51.1715 -0.145353 0)
(51.1756 -0.139297 0)
(51.1781 -0.129982 0)
(51.1781 -0.116609 0)
(51.1742 -0.0994495 0)
(51.165 -0.0789156 0)
(51.1494 -0.0563844 0)
(51.1265 -0.0337477 0)
(51.0968 -0.0134092 0)
(51.0614 0.00244403 0)
(51.0227 0.0123702 0)
(50.983 0.0161734 0)
(50.9444 0.014826 0)
(50.9081 0.0100747 0)
(50.874 0.00380094 0)
(50.841 -0.00239974 0)
(50.8077 -0.00748908 0)
(50.7723 -0.0109274 0)
(50.7331 -0.012584 0)
(50.6883 -0.0125693 0)
(50.6361 -0.0110978 0)
(50.575 -0.00850333 0)
(50.5033 -0.00503863 0)
(50.4207 -0.00111566 0)
(50.3276 0.00295579 0)
(50.2266 0.00606682 0)
(50.1222 0.00835053 0)
(50.0195 0.00919346 0)
(49.9243 0.00906774 0)
(49.8416 0.00871659 0)
(49.7751 0.00840206 0)
(49.7268 0.00844273 0)
(49.6989 0.00933789 0)
(49.6822 0.010224 0)
(49.7079 0.0092442 0)
(51.0674 -0.0916591 0)
(51.1096 -0.0545435 0)
(51.1079 -0.110177 0)
(51.1285 -0.10006 0)
(51.1334 -0.12704 0)
(51.1426 -0.129383 0)
(51.1489 -0.141507 0)
(51.1551 -0.144872 0)
(51.1609 -0.149214 0)
(51.1665 -0.149255 0)
(51.1717 -0.147561 0)
(51.1763 -0.14219 0)
(51.1796 -0.133497 0)
(51.1806 -0.120639 0)
(51.1783 -0.103728 0)
(51.171 -0.0829927 0)
(51.1574 -0.0596021 0)
(51.1366 -0.0353132 0)
(51.1084 -0.0125603 0)
(51.0737 0.00619146 0)
(51.0344 0.0190046 0)
(50.9933 0.0251204 0)
(50.9526 0.0250941 0)
(50.9142 0.0205413 0)
(50.8783 0.013492 0)
(50.8443 0.00585631 0)
(50.8108 -0.000985776 0)
(50.7761 -0.00621641 0)
(50.7384 -0.00951645 0)
(50.6959 -0.0109151 0)
(50.6467 -0.0106026 0)
(50.589 -0.00886911 0)
(50.5209 -0.00606288 0)
(50.4415 -0.00249968 0)
(50.3509 0.00140563 0)
(50.2508 0.00527623 0)
(50.1451 0.00794755 0)
(50.0391 0.00971077 0)
(49.9384 0.00996398 0)
(49.8486 0.00942228 0)
(49.7742 0.00882913 0)
(49.7176 0.00845047 0)
(49.68 0.0084418 0)
(49.6626 0.00937538 0)
(49.655 0.0100122 0)
(49.6902 0.00887119 0)
(51.0669 -0.0882246 0)
(51.1093 -0.0531501 0)
(51.1073 -0.107525 0)
(51.1282 -0.0982402 0)
(51.1329 -0.125187 0)
(51.1423 -0.128232 0)
(51.1485 -0.140832 0)
(51.1548 -0.144928 0)
(51.1607 -0.149874 0)
(51.1664 -0.150619 0)
(51.1719 -0.149571 0)
(51.1769 -0.144885 0)
(51.1809 -0.136834 0)
(51.183 -0.124542 0)
(51.182 -0.10798 0)
(51.1766 -0.0872022 0)
(51.1652 -0.0631582 0)
(51.1465 -0.0374239 0)
(51.1202 -0.012383 0)
(51.0865 0.0093177 0)
(51.0472 0.0253024 0)
(51.0048 0.0342231 0)
(50.9621 0.0361 0)
(50.9212 0.0322714 0)
(50.883 0.0248053 0)
(50.8475 0.0158864 0)
(50.8133 0.00726173 0)
(50.7789 8.47099e-05 0)
(50.7424 -0.0050863 0)
(50.702 -0.00812437 0)
(50.6556 -0.00918272 0)
(50.6012 -0.00854733 0)
(50.537 -0.0065298 0)
(50.4612 -0.00356213 0)
(50.3735 6.9014e-05 0)
(50.2752 0.00386702 0)
(50.1692 0.00744791 0)
(50.0606 0.00959622 0)
(49.9554 0.0107862 0)
(49.8591 0.0104879 0)
(49.7768 0.00957518 0)
(49.7118 0.0088451 0)
(49.6659 0.00841 0)
(49.639 0.00846542 0)
(49.6317 0.00937981 0)
(49.6324 0.00986149 0)
(49.6759 0.00825178 0)
(51.0665 -0.084898 0)
(51.1091 -0.0517852 0)
(51.1068 -0.104913 0)
(51.128 -0.0963965 0)
(51.1324 -0.123275 0)
(51.1419 -0.126966 0)
(51.1481 -0.140018 0)
(51.1545 -0.144814 0)
(51.1604 -0.150354 0)
(51.1663 -0.151791 0)
(51.172 -0.151381 0)
(51.1774 -0.14738 0)
(51.182 -0.139983 0)
(51.185 -0.128296 0)
(51.1854 -0.112166 0)
(51.1818 -0.0914891 0)
(51.1725 -0.0669928 0)
(51.1562 -0.0400399 0)
(51.1319 -0.0128919 0)
(51.0997 0.0117217 0)
(51.0608 0.0310716 0)
(51.0176 0.0432356 0)
(50.9729 0.0476133 0)
(50.9294 0.0451138 0)
(50.8886 0.0377016 0)
(50.851 0.0277604 0)
(50.8156 0.0174048 0)
(50.7809 0.00817061 0)
(50.7452 0.000921273 0)
(50.7064 -0.00401929 0)
(50.6626 -0.00667884 0)
(50.6116 -0.00735188 0)
(50.5512 -0.00636254 0)
(50.4795 -0.00409715 0)
(50.3952 -0.00099619 0)
(50.2992 0.0026202 0)
(50.194 0.00621979 0)
(50.0839 0.00941102 0)
(49.9748 0.0109621 0)
(49.8728 0.0115986 0)
(49.783 0.0107619 0)
(49.7096 0.00958115 0)
(49.6552 0.00872652 0)
(49.6201 0.00836168 0)
(49.6036 0.0084475 0)
(49.6056 0.00942776 0)
(49.6137 0.00946654 0)
(49.6643 0.00720722 0)
(51.0661 -0.0816729 0)
(51.1089 -0.0504482 0)
(51.1064 -0.102356 0)
(51.1277 -0.094536 0)
(51.1319 -0.121318 0)
(51.1416 -0.125595 0)
(51.1477 -0.139075 0)
(51.1541 -0.144537 0)
(51.1601 -0.150661 0)
(51.1661 -0.152773 0)
(51.172 -0.152996 0)
(51.1778 -0.149671 0)
(51.183 -0.142935 0)
(51.1869 -0.131882 0)
(51.1885 -0.116253 0)
(51.1866 -0.0958022 0)
(51.1794 -0.0710428 0)
(51.1655 -0.0431061 0)
(51.1436 -0.0140734 0)
(51.1132 0.0133379 0)
(51.0751 0.036147 0)
(51.0315 0.0519115 0)
(50.9851 0.0593685 0)
(50.9389 0.0588601 0)
(50.8952 0.0520815 0)
(50.855 0.0415017 0)
(50.8178 0.029568 0)
(50.7823 0.0182309 0)
(50.7468 0.00872027 0)
(50.7093 0.00162532 0)
(50.6678 -0.00292977 0)
(50.62 -0.00513376 0)
(50.5635 -0.00537183 0)
(50.496 -0.00405009 0)
(50.4157 -0.00156295 0)
(50.3227 0.00158866 0)
(50.2189 0.0050989 0)
(50.1083 0.00839963 0)
(49.9964 0.0111108 0)
(49.8892 0.0120549 0)
(49.7927 0.0121088 0)
(49.7112 0.0108274 0)
(49.648 0.00939455 0)
(49.6044 0.0085618 0)
(49.5801 0.00823982 0)
(49.5734 0.00845275 0)
(49.5837 0.00924928 0)
(49.5982 0.00892369 0)
(49.6546 0.00570453 0)
(51.0656 -0.0785325 0)
(51.1087 -0.0491395 0)
(51.106 -0.0998548 0)
(51.1275 -0.0926739 0)
(51.1315 -0.119323 0)
(51.1413 -0.124133 0)
(51.1473 -0.138009 0)
(51.1538 -0.144105 0)
(51.1598 -0.150799 0)
(51.1659 -0.15357 0)
(51.172 -0.154416 0)
(51.1781 -0.15176 0)
(51.1838 -0.145686 0)
(51.1885 -0.135286 0)
(51.1913 -0.120213 0)
(51.191 -0.100095 0)
(51.1859 -0.0752453 0)
(51.1744 -0.0465571 0)
(51.155 -0.0158898 0)
(51.1268 0.0141373 0)
(51.0901 0.0404002 0)
(51.0465 0.0600233 0)
(50.9987 0.0710833 0)
(50.95 0.073252 0)
(50.9032 0.0677833 0)
(50.8599 0.0570763 0)
(50.8202 0.0438359 0)
(50.7833 0.0304362 0)
(50.7474 0.0185311 0)
(50.7108 0.0090387 0)
(50.6711 0.00230342 0)
(50.6263 -0.00175048 0)
(50.5736 -0.00341969 0)
(50.5105 -0.00322972 0)
(50.4346 -0.00159951 0)
(50.3452 0.0010333 0)
(50.2436 0.00414151 0)
(50.1333 0.00744488 0)
(50.0196 0.0103446 0)
(49.9082 0.0125419 0)
(49.8053 0.0128251 0)
(49.7163 0.0123717 0)
(49.6444 0.0106403 0)
(49.592 0.00910618 0)
(49.5594 0.00827089 0)
(49.5454 0.00811504 0)
(49.5476 0.00829846 0)
(49.5652 0.00910222 0)
(49.5851 0.00849694 0)
(49.6462 0.0047912 0)
(51.0652 -0.0754094 0)
(51.1084 -0.0478547 0)
(51.1056 -0.0974115 0)
(51.1272 -0.090817 0)
(51.1311 -0.117305 0)
(51.1409 -0.12259 0)
(51.1469 -0.136833 0)
(51.1535 -0.143525 0)
(51.1595 -0.150774 0)
(51.1657 -0.154186 0)
(51.172 -0.155644 0)
(51.1783 -0.153646 0)
(51.1845 -0.148231 0)
(51.1899 -0.138494 0)
(51.1939 -0.12402 0)
(51.195 -0.104325 0)
(51.1919 -0.0795401 0)
(51.1828 -0.0503228 0)
(51.166 -0.0182844 0)
(51.1403 0.0141235 0)
(51.1053 0.0437425 0)
(51.0623 0.0673707 0)
(51.0137 0.0824732 0)
(50.9628 0.0879905 0)
(50.9127 0.0845779 0)
(50.8659 0.0743821 0)