/*--------------------------------*- C++ -*----------------------------------*\
  =========                 |
  \\      /  F ield         | OpenFOAM: The Open Source CFD Toolbox
   \\    /   O peration     | Website:  https://openfoam.org
    \\  /    A nd           | Version:  dev
     \\/     M anipulation  |
\*---------------------------------------------------------------------------*/
FoamFile
{
    version     2.0;
    format      ascii;
    class       volScalarField;
    location    "75";
    object      yPlus;
}
// * * * * * * * * * * * * * * * * * * * * * * * * * * * * * * * * * * * * * //

dimensions      [0 0 0 0 0 0 0];

internalField   uniform 0;

boundaryField
{
    inlet-l
    {
        type            calculated;
        value           uniform 0;
    }
    airfoil-l1
    {
        type            calculated;
        value           nonuniform List<scalar> 
71
(
191.324
214.696
249.775
283.518
310.02
327.357
337.611
342.734
344.217
343.191
340.344
336.443
331.031
324.573
317.467
309.981
302.277
294.454
286.562
278.677
270.856
263.119
255.5
248.038
240.779
233.771
227.051
220.624
214.503
208.676
203.142
197.931
193.106
188.733
184.911
181.718
179.242
177.519
176.49
176.019
175.893
175.973
176.206
176.462
176.76
176.98
177.159
177.165
176.951
176.424
175.611
174.427
172.87
171.039
168.926
166.53
163.955
161.169
158.263
155.237
152.206
149.178
146.225
143.373
140.6
137.904
135.233
132.607
129.999
127.608
125.05
)
;
    }
    empty-1
    {
        type            empty;
    }
    empty-2
    {
        type            empty;
    }
    wall-l1
    {
        type            calculated;
        value           nonuniform List<scalar> 
104
(
31.5867
31.4798
31.3181
31.1396
30.9505
30.7539
30.5507
30.3328
30.1081
29.8753
29.6319
29.3795
29.1154
28.8403
28.5533
28.2553
27.9459
27.6256
27.2933
26.9505
26.5976
26.2341
25.8605
25.4777
25.0853
24.6838
24.2744
23.8568
23.4312
22.9988
22.561
22.1178
21.6695
21.2186
20.7639
20.3072
19.8493
19.3918
18.9362
18.4843
18.0384
17.5997
17.1699
16.7518
16.3476
15.9598
15.5932
15.2524
14.9435
14.6707
14.441
14.2608
14.1377
14.067
14.0548
14.1044
14.2103
14.3729
14.5882
14.8519
15.1592
15.5054
15.8854
16.2961
16.7331
17.1922
17.6728
18.1721
18.6877
19.2179
19.7631
20.3206
20.8905
21.4719
22.0643
22.6674
23.2795
23.9013
24.5323
25.1717
25.8194
26.4752
27.1382
27.8095
28.4874
29.1723
29.864
30.5622
31.2665
31.9783
32.6956
33.4206
34.1513
34.8899
35.6348
36.3882
37.1492
37.9179
38.6962
39.4853
40.2809
41.0981
41.8896
42.8359
)
;
    }
    airfoil-l2
    {
        type            calculated;
        value           nonuniform List<scalar> 
104
(
124.786
127.059
128.846
130.094
130.933
131.482
131.841
132.066
132.195
132.164
131.969
131.623
131.19
130.733
130.286
129.878
129.486
129.105
128.679
128.188
127.649
127.073
126.499
125.953
125.462
125.042
124.67
124.334
124.008
123.669
123.306
122.933
122.556
122.169
121.784
121.406
121.024
120.622
120.183
119.691
119.143
118.543
117.9
117.231
116.558
115.895
115.259
114.66
114.109
113.596
113.115
112.649
112.19
111.722
111.235
110.725
110.192
109.651
109.113
108.59
108.095
107.644
107.245
106.886
106.573
106.292
106.027
105.763
105.487
105.193
104.863
104.49
104.085
103.65
103.177
102.697
102.204
101.697
101.191
100.685
100.179
99.6642
99.1527
98.6239
98.0715
97.4948
96.8871
96.2338
95.522
94.7654
93.9459
93.0544
92.0857
91.033
89.8852
88.6266
87.2377
85.6966
83.9712
81.9942
79.7287
76.9162
73.7711
67.8656
)
;
    }
    empty-3
    {
        type            empty;
    }
    empty-4
    {
        type            empty;
    }
    wall-l2
    {
        type            calculated;
        value           nonuniform List<scalar> 
51
(
43.5494
44.4344
45.3115
46.1921
47.0827
47.9873
48.9071
49.8385
50.7827
51.7387
52.7054
53.6819
54.6656
55.6554
56.6483
57.6421
58.6338
59.62
60.5973
61.5621
62.5102
63.4377
64.34
65.2131
66.0524
66.8537
67.6123
68.3236
68.9831
69.587
70.1312
70.6123
71.0261
71.3694
71.6388
71.8316
71.9452
71.9782
71.9288
71.7959
71.5787
71.2779
70.8942
70.4309
69.8914
69.2817
68.6058
67.8868
67.091
66.4455
65.3759
)
;
    }
    outlet-l
    {
        type            calculated;
        value           uniform 0;
    }
    empty-5
    {
        type            empty;
    }
    empty-6
    {
        type            empty;
    }
    outlet-h
    {
        type            calculated;
        value           uniform 0;
    }
    wall-h2
    {
        type            calculated;
        value           nonuniform List<scalar> 
51
(
43.4655
44.354
45.2342
46.1176
47.0106
47.9173
48.8389
49.7717
50.7169
51.6736
52.6405
53.6168
54.5999
55.5888
56.5804
57.5725
58.5621
59.546
60.5207
61.4825
62.4275
63.3515
64.2501
65.1191
65.9543
66.7511
67.505
68.2114
68.8658
69.4644
70.0031
70.4783
70.8863
71.2235
71.4866
71.673
71.7802
71.8066
71.7505
71.6109
71.3872
71.0799
70.69
70.2206
69.6753
69.0602
68.3792
67.6558
66.8549
66.2056
65.1242
)
;
    }
    empty-7
    {
        type            empty;
    }
    empty-8
    {
        type            empty;
    }
    airfoil-h2
    {
        type            calculated;
        value           nonuniform List<scalar> 
104
(
123.237
125.448
127.196
128.424
129.254
129.813
130.192
130.45
130.607
130.635
130.507
130.244
129.899
129.516
129.134
128.784
128.451
128.126
127.756
127.335
126.856
126.338
125.819
125.339
124.918
124.557
124.26
123.991
123.72
123.437
123.123
122.778
122.414
122.051
121.679
121.298
120.901
120.479
120.028
119.527
118.984
118.392
117.766
117.121
116.476
115.846
115.239
114.667
114.133
113.629
113.157
112.686
112.219
111.747
111.254
110.744
110.225
109.697
109.171
108.672
108.197
107.773
107.385
107.043
106.737
106.457
106.189
105.915
105.63
105.321
104.973
104.596
104.182
103.737
103.268
102.778
102.282
101.774
101.266
100.754
100.239
99.7259
99.2055
98.6667
98.1116
97.5334
96.9165
96.2588
95.5525
94.7917
93.9695
93.0777
92.1087
91.06
89.915
88.6625
87.2805
85.743
84.016
82.0385
79.7704
76.9491
73.7924
67.8492
)
;
    }
    wall-h1
    {
        type            calculated;
        value           nonuniform List<scalar> 
104
(
32.0034
31.8955
31.7352
31.5585
31.3718
31.1769
30.9772
30.7597
30.5366
30.3058
30.0645
29.8133
29.5508
29.277
28.9908
28.6933
28.3842
28.063
27.7302
27.3867
27.0318
26.6669
26.2914
25.9067
25.512
25.1089
24.6973
24.2779
23.8516
23.418
22.9797
22.536
22.0886
21.638
21.1841
20.7284
20.2717
19.8153
19.3606
18.909
18.463
18.0224
17.5907
17.168
16.7582
16.3623
15.9849
15.6304
15.3032
15.0096
14.7538
14.5432
14.3821
14.2789
14.227
14.2363
14.3021
14.4259
14.6045
14.8357
15.113
15.4332
15.7912
16.1834
16.6051
17.0516
17.522
18.0133
18.5222
19.0481
19.5899
20.1453
20.7134
21.2941
21.8864
22.4899
23.1029
23.7256
24.3585
25.0001
25.6495
26.307
26.9732
27.6461
28.3272
29.0149
29.7095
30.411
31.1185
31.8337
32.5545
33.2832
34.0177
34.7604
35.5092
36.2668
37.0315
37.805
38.5882
39.3806
40.181
41.0033
41.7974
42.7491
)
;
    }
    empty-9
    {
        type            empty;
    }
    empty-10
    {
        type            empty;
    }
    inlet-h
    {
        type            calculated;
        value           uniform 0;
    }
    airfoil-h1
    {
        type            calculated;
        value           nonuniform List<scalar> 
71
(
189.308
209.549
243.909
278.378
306.681
326.046
338.094
344.652
347.219
346.957
344.642
340.995
335.913
329.584
322.456
314.837
306.917
298.817
290.59
282.338
274.113
265.943
257.881
249.97
242.24
234.768
227.587
220.727
214.167
207.894
201.916
196.267
191.012
186.235
182.047
178.525
175.765
173.823
172.631
172.034
171.837
171.868
172.049
172.309
172.663
172.965
173.223
173.349
173.307
173.008
172.335
171.34
169.965
168.27
166.272
163.993
161.518
158.853
156.024
153.109
150.147
147.202
144.321
141.532
138.823
136.159
133.548
130.952
128.393
126.05
123.528
)
;
    }
    empty-11
    {
        type            empty;
    }
    empty-12
    {
        type            empty;
    }
}


// ************************************************************************* //
