/*--------------------------------*- C++ -*----------------------------------*\
  =========                 |
  \\      /  F ield         | OpenFOAM: The Open Source CFD Toolbox
   \\    /   O peration     | Website:  https://openfoam.org
    \\  /    A nd           | Version:  dev
     \\/     M anipulation  |
\*---------------------------------------------------------------------------*/
FoamFile
{
    version     2.0;
    format      ascii;
    class       surfaceScalarField;
    location    "450";
    object      phi;
}
// * * * * * * * * * * * * * * * * * * * * * * * * * * * * * * * * * * * * * //

dimensions      [0 3 -1 0 0 0 0];

internalField   nonuniform List<scalar> 
58294
(
-0.473316
1.74785e-05
-0.473318
1.70698e-05
-0.429568
-1.01067e-05
-0.473321
7.99385e-06
-0.429548
-2.78434e-06
-0.389889
-1.5721e-05
-0.473325
9.78737e-07
-0.429546
5.28721e-06
-0.38988
-1.19983e-05
-0.353811
-1.48339e-05
-0.47333
-2.75283e-06
-0.429557
1.1989e-05
-0.389875
5.25177e-07
-0.353815
-8.06199e-06
-0.321076
-1.0998e-05
-0.473337
-2.34796e-06
-0.429577
1.73941e-05
-0.389876
1.26768e-05
-0.353818
4.16556e-06
-0.321083
-9.08251e-07
-0.291386
-1.06115e-05
-0.473345
1.1023e-06
-0.429599
2.02634e-05
-0.38988
2.16634e-05
-0.35382
1.4531e-05
-0.321088
8.63412e-06
-0.291386
-1.50202e-06
-0.26443
-1.28674e-05
-0.473353
5.40097e-06
-0.429618
2.02195e-05
-0.389885
2.54127e-05
-0.353819
2.10388e-05
-0.321088
1.50652e-05
-0.291383
5.6795e-06
-0.264427
-5.00449e-06
-0.239969
-1.66252e-05
-0.473359
8.46828e-06
-0.429631
1.73864e-05
-0.389889
2.38024e-05
-0.353817
2.26378e-05
-0.321085
1.78094e-05
-0.291378
1.07925e-05
-0.264422
1.19363e-06
-0.239964
-9.45937e-06
-0.217762
-2.10953e-05
-0.473363
9.18486e-06
-0.429635
1.25596e-05
-0.38989
1.84664e-05
-0.353813
2.01046e-05
-0.321079
1.72169e-05
-0.291374
1.33516e-05
-0.264418
6.23253e-06
-0.23996
-3.52192e-06
-0.217757
-1.42451e-05
-0.197612
-2.61017e-05
-0.473363
7.58213e-06
-0.429632
6.88804e-06
-0.389889
1.17265e-05
-0.35381
1.53563e-05
-0.321074
1.47644e-05
-0.291371
1.3826e-05
-0.264414
9.63762e-06
-0.239955
1.99363e-06
-0.217752
-8.15934e-06
-0.197607
-1.92777e-05
-0.179327
-3.1311e-05
-0.473361
4.56877e-06
-0.429626
1.63232e-06
-0.389888
5.72113e-06
-0.353809
1.0446e-05
-0.321071
1.20634e-05
-0.291369
1.33476e-05
-0.264412
1.17792e-05
-0.239952
6.53512e-06
-0.217748
-2.03399e-06
-0.197603
-1.29025e-05
-0.179322
-2.4495e-05
-0.162731
-3.65566e-05
-0.473356
1.37657e-06
-0.42962
-2.23446e-06
-0.389888
1.77357e-06
-0.35381
6.85103e-06
-0.321071
1.022e-05
-0.29137
1.29436e-05
-0.264412
1.33177e-05
-0.239951
1.02297e-05
-0.217745
3.49825e-06
-0.197599
-6.15112e-06
-0.179317
-1.77602e-05
-0.162726
-2.96603e-05
-0.147673
-4.16017e-05
-0.473351
-9.61732e-07
-0.429614
-4.19563e-06
-0.38989
2.12549e-07
-0.353813
5.15752e-06
-0.321073
9.62932e-06
-0.291373
1.32025e-05
-0.264414
1.48522e-05
-0.239951
1.34307e-05
-0.217744
8.46818e-06
-0.197595
2.90795e-07
-0.179312
-1.04553e-05
-0.162721
-2.27155e-05
-0.147668
-3.47814e-05
-0.134009
-4.65712e-05
-0.473346
-1.91093e-06
-0.429611
-4.29094e-06
-0.389895
5.59581e-07
-0.353818
5.1222e-06
-0.321078
1.00286e-05
-0.291378
1.41469e-05
-0.264417
1.66285e-05
-0.239952
1.64442e-05
-0.217743
1.30065e-05
-0.197593
6.32695e-06
-0.179309
-3.26177e-06
-0.162717
-1.49914e-05
-0.147663
-2.76398e-05
-0.134004
-3.97028e-05
-0.121607
-5.12257e-05
-0.473343
-1.50059e-06
-0.42961
-3.00479e-06
-0.389901
1.88079e-06
-0.353823
6.00384e-06
-0.321084
1.08449e-05
-0.291383
1.54293e-05
-0.264422
1.85839e-05
-0.239955
1.94131e-05
-0.217744
1.73038e-05
-0.197592
1.20181e-05
-0.179306
3.71032e-06
-0.162713
-7.15792e-06
-0.147659
-1.96268e-05
-0.134
-3.24761e-05
-0.121602
-4.44841e-05
-0.110353
-5.57201e-05
-0.473343
-1.64453e-07
-0.42961
-1.06039e-06
-0.389907
3.2175e-06
-0.353828
6.94666e-06
-0.321089
1.14699e-05
-0.291389
1.65391e-05
-0.264427
2.04108e-05
-0.239959
2.22651e-05
-0.217746
2.14222e-05
-0.197592
1.7464e-05
-0.179305
1.04153e-05
-0.16271
5.94334e-07
-0.147654
-1.13372e-05
-0.133995
-2.42812e-05
-0.121597
-3.70975e-05
-0.110349
-4.89687e-05
-0.100142
-5.97589e-05
-0.473344
1.47789e-06
-0.429611
7.99268e-07
-0.389912
3.84885e-06
-0.353833
7.30014e-06
-0.321094
1.15253e-05
-0.291394
1.70774e-05
-0.264432
2.17773e-05
-0.239963
2.47961e-05
-0.217749
2.52972e-05
-0.197594
2.2705e-05
-0.179304
1.69214e-05
-0.162708
8.20164e-06
-0.147651
-2.93676e-06
-0.133991
-1.56359e-05
-0.121593
-2.88035e-05
-0.110345
-4.15065e-05
-0.100138
-5.32327e-05
-0.0908758
-6.36235e-05
-0.473346
2.86774e-06
-0.429612
2.03625e-06
-0.389915
3.47892e-06
-0.353835
6.76692e-06
-0.321098
1.08938e-05
-0.2914
1.68427e-05
-0.264437
2.24229e-05
-0.239968
2.67529e-05
-0.217753
2.8751e-05
-0.197596
2.76669e-05
-0.179305
2.32324e-05
-0.162706
1.5662e-05
-0.147648
5.42761e-06
-0.133987
-6.76195e-06
-0.121589
-1.99542e-05
-0.11034
-3.31824e-05
-0.100134
-4.56116e-05
-0.0908719
-5.71896e-05
-0.0824677
-6.70112e-05
-0.473348
3.64085e-06
-0.429611
2.38976e-06
-0.389915
2.17853e-06
-0.353837
5.41038e-06
-0.3211
9.70625e-06
-0.291405
1.58896e-05
-0.264443
2.22695e-05
-0.239974
2.79405e-05
-0.217758
3.15569e-05
-0.197599
3.21615e-05
-0.179306
2.9265e-05
-0.162706
2.29609e-05
-0.147646
1.37207e-05
-0.133984
2.204e-06
-0.121585
-1.07378e-05
-0.110336
-2.41899e-05
-0.10013
-3.73327e-05
-0.0908681
-4.94716e-05
-0.082464
-6.09411e-05
-0.074831
-7.02677e-05
-0.473351
3.6993e-06
-0.429609
1.92198e-06
-0.389913
3.16484e-07
-0.353839
3.54031e-06
-0.321103
8.19542e-06
-0.291409
1.44137e-05
-0.264448
2.13913e-05
-0.23998
2.82657e-05
-0.217763
3.3523e-05
-0.197604
3.59663e-05
-0.179309
3.48368e-05
-0.162707
3.00079e-05
-0.147645
2.18924e-05
-0.133981
1.11694e-05
-0.121581
-1.34241e-06
-0.110332
-1.47764e-05
-0.100126
-2.83136e-05
-0.0908641
-4.1287e-05
-0.0824605
-5.30049e-05
-0.0748275
-6.44449e-05
-0.0679096
-7.30493e-05
-0.473353
3.15855e-06
-0.429607
9.01051e-07
-0.389909
-1.65471e-06
-0.35384
1.55968e-06
-0.321106
6.61939e-06
-0.291414
1.26899e-05
-0.264454
1.99801e-05
-0.239986
2.77767e-05
-0.21777
3.45399e-05
-0.197609
3.88684e-05
-0.179313
3.97105e-05
-0.162709
3.66243e-05
-0.147645
2.98531e-05
-0.133979
2.00697e-05
-0.121578
8.12548e-06
-0.110328
-5.09164e-06
-0.100122
-1.87868e-05
-0.0908602
-3.22632e-05
-0.0824568
-4.49833e-05
-0.0748243
-5.63096e-05
-0.0679062
-6.7816e-05
-0.0616216
-7.57076e-05
-0.473354
2.27621e-06
-0.429603
-2.73636e-07
-0.389905
-3.29858e-06
-0.353841
-1.72614e-07
-0.32111
5.15707e-06
-0.291418
1.09454e-05
-0.264459
1.82616e-05
-0.239993
2.66108e-05
-0.217776
3.46211e-05
-0.197615
4.07415e-05
-0.179317
4.36696e-05
-0.162711
4.25883e-05
-0.147646
3.74431e-05
-0.133978
2.88163e-05
-0.121576
1.75901e-05
-0.110325
4.72332e-06
-0.100118
-8.9307e-06
-0.0908563
-2.27153e-05
-0.082453
-3.60387e-05
-0.0748208
-4.84751e-05
-0.0679032
-5.93337e-05
-0.0616184
-7.09895e-05
-0.055921
-7.78622e-05
-0.473355
1.3296e-06
-0.4296
-1.23752e-06
-0.389901
-4.34512e-06
-0.353843
-1.43233e-06
-0.321114
3.91435e-06
-0.291422
9.33862e-06
-0.264465
1.64402e-05
-0.239999
2.49749e-05
-0.217784
3.38736e-05
-0.197622
4.15731e-05
-0.179323
4.65602e-05
-0.162715
4.76746e-05
-0.147648
4.44593e-05
-0.133978
3.72739e-05
-0.121574
2.69743e-05
-0.110322
1.45916e-05
-0.100114
1.09854e-06
-0.0908524
-1.27708e-05
-0.0824492
-2.65126e-05
-0.0748172
-3.96001e-05
-0.0678999
-5.17364e-05
-0.0616156
-6.21656e-05
-0.055918
-7.40135e-05
-0.0507476
-7.9888e-05
-0.473356
5.45305e-07
-0.429596
-1.71304e-06
-0.389897
-4.68201e-06
-0.353845
-2.14669e-06
-0.321118
2.90835e-06
-0.291426
7.92659e-06
-0.26447
1.46532e-05
-0.240006
2.3068e-05
-0.217791
3.2481e-05
-0.19763
4.14426e-05
-0.17933
4.83414e-05
-0.162721
5.1712e-05
-0.147651
5.06883e-05
-0.133979
4.5264e-05
-0.121573
3.61634e-05
-0.110319
2.44507e-05
-0.100111
1.12275e-05
-0.0908487
-2.62441e-06
-0.0824454
-1.65445e-05
-0.0748136
-3.015e-05
-0.0678966
-4.29761e-05
-0.0616125
-5.48116e-05
-0.0559155
-6.46972e-05
-0.0507448
-7.68367e-05
-0.0460498
-8.14218e-05
-0.473356
3.9005e-08
-0.429594
-1.60503e-06
-0.389895
-4.37768e-06
-0.353848
-2.37625e-06
-0.321122
2.12133e-06
-0.29143
6.70791e-06
-0.264475
1.29701e-05
-0.240013
2.1057e-05
-0.217799
3.0642e-05
-0.197638
4.05131e-05
-0.179338
4.90555e-05
-0.162727
5.46208e-05
-0.147655
5.59415e-05
-0.133981
5.25895e-05
-0.121572
4.50119e-05
-0.110317
3.42193e-05
-0.100108
2.14073e-05
-0.0908451
7.64073e-06
-0.0824417
-6.36358e-06
-0.0748099
-2.0202e-05
-0.0678931
-3.36058e-05
-0.0616094
-4.61385e-05
-0.0559126
-5.76485e-05
-0.0507425
-6.7029e-05
-0.0460472
-7.95166e-05
-0.0417888
-8.28659e-05
-0.473357
-1.7868e-07
-0.429593
-9.64979e-07
-0.389892
-3.59474e-06
-0.35385
-2.25057e-06
-0.321126
1.50876e-06
-0.291434
5.63918e-06
-0.26448
1.1405e-05
-0.240019
1.90466e-05
-0.217806
2.85364e-05
-0.197646
3.89635e-05
-0.179346
4.8827e-05
-0.162734
5.63914e-05
-0.14766
6.01017e-05
-0.133984
5.90561e-05
-0.121573
5.33359e-05
-0.110316
4.3771e-05
-0.100105
3.15813e-05
-0.0908417
1.79952e-05
-0.082438
3.94837e-06
-0.0748062
-1.00339e-05
-0.0678896
-2.37005e-05
-0.0616061
-3.68757e-05
-0.0559097
-4.91082e-05
-0.0507399
-6.02865e-05
-0.0460451
-6.90706e-05
-0.0417862
-8.20278e-05
-0.037922
-8.38791e-05
-0.473358
-1.81949e-07
-0.429593
6.24002e-09
-0.389891
-2.56734e-06
-0.353851
-1.92556e-06
-0.32113
1.03677e-06
-0.291437
4.68345e-06
-0.264484
9.94219e-06
-0.240024
1.70922e-05
-0.217814
2.62977e-05
-0.197655
3.69733e-05
-0.179355
4.78087e-05
-0.162743
5.71018e-05
-0.147667
6.31038e-05
-0.133988
6.45163e-05
-0.121575
6.09464e-05
-0.110316
5.29551e-05
-0.100103
4.16692e-05
-0.0908385
2.84213e-05
-0.0824344
1.43643e-05
-0.0748025
2.44704e-07
-0.067886
-1.35941e-05
-0.0616028
-2.70343e-05
-0.0559066
-3.99581e-05
-0.0507371
-5.18582e-05
-0.0460427
-6.26945e-05
-0.0417844
-7.09436e-05
-0.0379196
-8.44188e-05
-0.0344124
-8.48541e-05
-0.47336
-7.95712e-08
-0.429594
1.0517e-06
-0.389889
-1.51411e-06
-0.353852
-1.53431e-06
-0.321132
6.73918e-07
-0.29144
3.81167e-06
-0.264488
8.56776e-06
-0.24003
1.52081e-05
-0.21782
2.40135e-05
-0.197663
3.46789e-05
-0.179364
4.61567e-05
-0.162752
5.68566e-05
-0.147675
6.49638e-05
-0.133994
6.88551e-05
-0.121578
6.76779e-05
-0.110316
6.15858e-05
-0.100101
5.15361e-05
-0.0908357
3.88608e-05
-0.0824308
2.48917e-05
-0.0747988
1.06232e-05
-0.0678824
-3.39541e-06
-0.0615993
-1.70036e-05
-0.0559034
-3.01916e-05
-0.0507342
-4.28464e-05
-0.0460401
-5.44129e-05
-0.0417822
-6.49162e-05
-0.037918
-7.25551e-05
-0.0344101
-8.66752e-05
-0.0312276
-8.54568e-05
-0.473361
1.95503e-08
-0.429596
1.90117e-06
-0.389887
-6.34823e-07
-0.353853
-1.17864e-06
-0.321134
4.02727e-07
-0.291442
3.02133e-06
-0.264492
7.27334e-06
-0.240034
1.34036e-05
-0.217827
2.17305e-05
-0.197671
3.2194e-05
-0.179373
4.40112e-05
-0.162761
5.57907e-05
-0.147684
6.57357e-05
-0.134001
7.20294e-05
-0.121583
7.33798e-05
-0.110318
6.94974e-05
-0.100101
6.10266e-05
-0.0908334
4.92311e-05
-0.0824275
3.55282e-05
-0.074795
2.11447e-05
-0.0678786
6.87666e-06
-0.0615958
-6.93324e-06
-0.0559001
-2.02689e-05
-0.0507312
-3.3174e-05
-0.0460374
-4.55375e-05
-0.0417798
-5.67534e-05
-0.037916
-6.69298e-05
-0.0344086
-7.40343e-05
-0.0312254
-8.88298e-05
-0.028338
-8.60556e-05
-0.473364
4.05478e-08
-0.429599
2.36071e-06
-0.389885
-5.08081e-08
-0.353852
-9.20456e-07
-0.321136
2.00451e-07
-0.291444
2.3201e-06
-0.264495
6.07216e-06
-0.240039
1.16814e-05
-0.217833
1.94871e-05
-0.197679
2.95881e-05
-0.179383
4.14921e-05
-0.162771
5.40254e-05
-0.147694
6.55126e-05
-0.134009
7.40352e-05
-0.121589
7.7962e-05
-0.110321
7.65168e-05
-0.100101
6.99739e-05
-0.0908318
5.93889e-05
-0.0824245
4.6211e-05
-0.0747913
3.18259e-05
-0.0678748
1.72878e-05
-0.0615921
3.17665e-06
-0.0558967
-1.03391e-05
-0.0507281
-2.33567e-05
-0.0460346
-3.59583e-05
-0.0417773
-4.8024e-05
-0.0379138
-5.89063e-05
-0.0344068
-6.8777e-05
-0.0312241
-7.52911e-05
-0.0283359
-9.08708e-05
-0.0257156
-8.63304e-05
-0.473365
-5.00537e-08
-0.429601
2.33587e-06
-0.389883
1.81009e-07
-0.353851
-7.91568e-07
-0.321136
4.52042e-08
-0.291445
1.71836e-06
-0.264497
4.98441e-06
-0.240043
1.00617e-05
-0.217839
1.73046e-05
-0.197687
2.69389e-05
-0.179392
3.86983e-05
-0.162781
5.16933e-05
-0.147704
6.4397e-05
-0.134019
7.49135e-05
-0.121596
8.13594e-05
-0.110326
8.25175e-05
-0.100103
7.81997e-05
-0.090831
6.9192e-05
-0.0824219
5.68461e-05
-0.0747878
4.26656e-05
-0.0678709
2.79103e-05
-0.0615882
1.3422e-05
-0.0558931
-4.19772e-07
-0.0507249
-1.35977e-05
-0.0460317
-2.62718e-05
-0.0417747
-3.85499e-05
-0.0379115
-5.03144e-05
-0.0344048
-6.08642e-05
-0.0312224
-7.04531e-05
-0.0283348
-7.64575e-05
-0.0257136
-9.281e-05
-0.0233364
-8.662e-05
-0.473367
-2.41339e-07
-0.429603
1.86289e-06
-0.389881
9.64694e-08
-0.35385
-7.91068e-07
-0.321137
-9.22839e-08
-0.291446
1.21835e-06
-0.2645
4.02801e-06
-0.240046
8.57058e-06
-0.217844
1.52194e-05
-0.197694
2.42912e-05
-0.1794
3.57344e-05
-0.162792
4.88995e-05
-0.147715
6.25099e-05
-0.134029
7.47302e-05
-0.121605
8.35628e-05
-0.110332
8.73896e-05
-0.100106
8.55556e-05
-0.0908312
7.84607e-05
-0.08242
6.72998e-05
-0.0747845
5.35834e-05
-0.0678669
3.87567e-05
-0.0615842
2.38864e-05
-0.0558893
9.60108e-06
-0.0507214
-3.89478e-06
-0.0460286
-1.66803e-05
-0.041772
-2.89796e-05
-0.0379091
-4.09343e-05
-0.0344027
-5.24094e-05
-0.0312206
-6.26629e-05
-0.0283333
-7.19952e-05
-0.0257126
-7.74365e-05
-0.0233345
-9.46403e-05
-0.0211762
-8.66382e-05
-0.473368
-4.90545e-07
-0.429604
1.07307e-06
-0.389879
-2.12065e-07
-0.353849
-8.92759e-07
-0.321138
-2.36038e-07
-0.291447
8.10292e-07
-0.264502
3.21087e-06
-0.24005
7.22828e-06
-0.217849
1.32678e-05
-0.1977
2.17116e-05
-0.179409
3.2679e-05
-0.162802
4.57822e-05
-0.147726
5.99632e-05
-0.13404
7.35811e-05
-0.121614
8.45772e-05
-0.110339
9.10623e-05
-0.100111
9.18929e-05
-0.0908327
8.70358e-05
-0.082419
7.74097e-05
-0.0747817
6.44857e-05
-0.0678632
4.98001e-05
-0.0615801
3.46413e-05
-0.0558853
1.98581e-05
-0.0507177
5.88453e-06
-0.0460253
-7.20422e-06
-0.0417691
-1.95795e-05
-0.0379066
-3.15008e-05
-0.0344005
-4.31319e-05
-0.0312187
-5.43332e-05
-0.0283316
-6.43044e-05
-0.0257112
-7.3401e-05
-0.0233336
-7.83482e-05
-0.0211745
-9.63665e-05
-0.0192168
-8.66987e-05
-0.473368
-7.37553e-07
-0.429605
1.64795e-07
-0.389877
-6.07848e-07
-0.353849
-1.04465e-06
-0.321138
-4.01286e-07
-0.291448
4.74575e-07
-0.264503
2.52617e-06
-0.240052
6.0494e-06
-0.217853
1.14775e-05
-0.197706
1.92527e-05
-0.179417
2.96233e-05
-0.162811
4.24348e-05
-0.147737
5.69048e-05
-0.134052
7.15643e-05
-0.121625
8.44652e-05
-0.110348
9.34911e-05
-0.100117
9.70988e-05
-0.0908356
9.47501e-05
-0.082419
8.70194e-05
-0.0747795
7.52214e-05
-0.0678596
6.09543e-05
-0.0615759
4.56633e-05
-0.0558811
3.04255e-05
-0.0507137
1.5878e-05
-0.0460217
2.29833e-06
-0.041766
-1.03445e-05
-0.0379039
-2.22785e-05
-0.0343982
-3.3811e-05
-0.0312167
-4.51378e-05
-0.0283298
-5.60918e-05
-0.0257097
-6.58175e-05
-0.0233323
-7.46901e-05
-0.0211737
-7.90946e-05
-0.0192152
-9.79925e-05
-0.0174383
-8.65465e-05
-0.473368
-9.24581e-07
-0.429605
-6.71384e-07
-0.389876
-9.63796e-07
-0.353848
-1.18786e-06
-0.321139
-5.8447e-07
-0.291449
1.89596e-07
-0.264505
1.95369e-06
-0.240055
5.03047e-06
-0.217857
9.86994e-06
-0.197712
1.6957e-05
-0.179424
2.66486e-05
-0.162821
3.8983e-05
-0.147748
5.34464e-05
-0.134064
6.88295e-05
-0.121637
8.32839e-05
-0.110359
9.46757e-05
-0.100124
0.000101069
-0.0908399
0.000101455
-0.0824202
9.59506e-05
-0.0747781
8.56442e-05
-0.0678565
7.2099e-05
-0.0615719
5.69086e-05
-0.0558767
4.13295e-05
-0.0507095
2.62127e-05
-0.0460179
1.20126e-05
-0.0417626
-1.11853e-06
-0.037901
-1.32843e-05
-0.0343957
-2.4784e-05
-0.0312145
-3.59443e-05
-0.028328
-4.69836e-05
-0.0257081
-5.77131e-05
-0.0233309
-6.71992e-05
-0.0211725
-7.58618e-05
-0.0192145
-7.97924e-05
-0.0174367
-9.95185e-05
-0.0158247
-8.64501e-05
-0.473368
-1.01153e-06
-0.429604
-1.28261e-06
-0.389875
-1.18712e-06
-0.353848
-1.26851e-06
-0.321139
-7.67906e-07
-0.291449
-6.08733e-08
-0.264506
1.46953e-06
-0.240057
4.15621e-06
-0.21786
8.44843e-06
-0.197717
1.48547e-05
-0.179431
2.38108e-05
-0.16283
3.5528e-05
-0.147759
4.97313e-05
-0.134076
6.54909e-05
-0.121649
8.11772e-05
-0.11037
9.4636e-05
-0.100133
0.000103756
-0.0908459
0.000107009
-0.0824228
0.000104043
-0.0747778
9.55868e-05
-0.067854
8.3108e-05
-0.0615681
6.82688e-05
-0.0558723
5.25245e-05
-0.0507051
3.69078e-05
-0.0460137
2.20591e-05
-0.0417588
8.28327e-06
-0.0378977
-4.35756e-06
-0.0343929
-1.60347e-05
-0.0312122
-2.70873e-05
-0.028326
-3.78836e-05
-0.0257064
-4.86675e-05
-0.0233294
-5.91944e-05
-0.0211712
-6.84668e-05
-0.0192134
-7.69287e-05
-0.0174361
-8.0354e-05
-0.0158233
-0.000100954
-0.0143603
-8.61876e-05
-0.473367
-9.89658e-07
-0.429604
-1.59915e-06
-0.389875
-1.24751e-06
-0.353848
-1.25985e-06
-0.321139
-9.24122e-07
-0.29145
-2.8336e-07
-0.264507
1.05047e-06
-0.240059
3.40349e-06
-0.217863
7.20168e-06
-0.197721
1.29586e-05
-0.179437
2.11608e-05
-0.162838
3.21528e-05
-0.147769
4.5891e-05
-0.134088
6.17097e-05
-0.121662
7.82419e-05
-0.110382
9.3475e-05
-0.100144
0.000105113
-0.0908534
0.000111308
-0.0824269
0.000111123
-0.0747786
0.000104883
-0.0678522
9.38249e-05
-0.0615646
7.96391e-05
-0.055868
6.39336e-05
-0.0507005
4.79559e-05
-0.0460093
3.25007e-05
-0.0417548
1.80296e-05
-0.0378942
4.73579e-06
-0.0343899
-7.39345e-06
-0.0312097
-1.85715e-05
-0.0283239
-2.92062e-05
-0.0257046
-3.96731e-05
-0.0233279
-5.022e-05
-0.0211699
-6.05582e-05
-0.0192123
-6.96207e-05
-0.0174351
-7.78999e-05
-0.0158227
-8.08835e-05
-0.014359
-0.000102294
-0.0130314
-8.5984e-05
-0.473367
-8.80105e-07
-0.429603
-1.62782e-06
-0.389876
-1.16394e-06
-0.353848
-1.16631e-06
-0.32114
-1.02983e-06
-0.29145
-4.75057e-07
-0.264508
6.83508e-07
-0.240061
2.74863e-06
-0.217866
6.11072e-06
-0.197725
1.12622e-05
-0.179443
1.87212e-05
-0.162846
2.89271e-05
-0.147779
4.20279e-05
-0.134099
5.7638e-05
-0.121675
7.46531e-05
-0.110395
9.12723e-05
-0.100156
0.000105209
-0.0908626
0.000114258
-0.0824326
0.000117055
-0.0747808
0.000113354
-0.0678514
0.000104102
-0.0615617
9.08933e-05
-0.0558638
7.54739e-05
-0.0506958
5.92827e-05
-0.0460047
4.33168e-05
-0.0417505
2.81666e-05
-0.0378903
1.41507e-05
-0.0343865
1.37404e-06
-0.0312069
-1.02274e-05
-0.0283216
-2.09184e-05
-0.0257027
-3.11427e-05
-0.0233262
-4.12969e-05
-0.0211684
-5.16323e-05
-0.019211
-6.17975e-05
-0.0174341
-7.06748e-05
-0.0158218
-7.87826e-05
-0.0143585
-8.1303e-05
-0.0130301
-0.000103547
-0.0118255
-8.5657e-05
-0.473366
-7.23523e-07
-0.429602
-1.44005e-06
-0.389876
-9.94523e-07
-0.353848
-1.01979e-06
-0.32114
-1.07388e-06
-0.291451
-6.29393e-07
-0.264509
3.62966e-07
-0.240062
2.17514e-06
-0.217868
5.15063e-06
-0.197729
9.75338e-06
-0.179448
1.64995e-05
-0.162853
2.5898e-05
-0.147788
3.82448e-05
-0.134111
5.34025e-05
-0.121688
7.05717e-05
-0.110409
8.81851e-05
-0.100168
0.000104069
-0.0908732
0.000115862
-0.0824401
0.000121687
-0.0747846
0.000120838
-0.0678518
0.000113761
-0.0615595
0.000101901
-0.05586
8.70377e-05
-0.0506912
7.08235e-05
-0.0459998
5.44584e-05
-0.0417459
3.87065e-05
-0.0378861
2.39731e-05
-0.0343828
1.04669e-05
-0.0312037
-1.76846e-06
-0.0283189
-1.2847e-05
-0.0257005
-2.30632e-05
-0.0233245
-3.29217e-05
-0.0211669
-4.27966e-05
-0.0192097
-5.29321e-05
-0.0174329
-6.29371e-05
-0.0158209
-7.16363e-05
-0.0143577
-7.95904e-05
-0.0130297
-8.16994e-05
-0.0118243
-0.00010471
-0.0107315
-8.54019e-05
-0.473366
-5.66392e-07
-0.429602
-1.13709e-06
-0.389877
-7.991e-07
-0.353848
-8.64076e-07
-0.32114
-1.06118e-06
-0.291451
-7.41062e-07
-0.26451
9.0152e-08
-0.240064
1.67352e-06
-0.21787
4.30496e-06
-0.197732
8.40752e-06
-0.179453
1.44911e-05
-0.16286
2.30868e-05
-0.147797
3.46111e-05
-0.134122
4.9135e-05
-0.121701
6.61476e-05
-0.110423
8.43841e-05
-0.100182
0.000101832
-0.0908852
0.000116097
-0.0824492
0.000124977
-0.0747901
0.000127148
-0.0678536
0.000122637
-0.0615582
0.000112506
-0.0558566
9.85295e-05
-0.0506867
8.25019e-05
-0.0459949
6.58744e-05
-0.041741
4.95907e-05
-0.0378816
3.41925e-05
-0.0343788
1.9949e-05
-0.0312002
6.98589e-06
-0.028316
-4.70303e-06
-0.0256981
-1.52673e-05
-0.0233225
-2.50413e-05
-0.0211653
-3.45443e-05
-0.0192083
-4.41511e-05
-0.0174317
-5.41085e-05
-0.0158198
-6.39702e-05
-0.0143568
-7.25136e-05
-0.0130289
-8.0322e-05
-0.0118239
-8.20082e-05
-0.0107304
-0.000105794
-0.00973866
-8.50518e-05
-0.473365
-4.40728e-07
-0.429602
-8.23487e-07
-0.389877
-6.28769e-07
-0.353848
-7.37773e-07
-0.32114
-1.01061e-06
-0.291451
-8.10341e-07
-0.26451
-1.32693e-07
-0.240065
1.23932e-06
-0.217872
3.56012e-06
-0.197735
7.21151e-06
-0.179457
1.26778e-05
-0.162866
2.05072e-05
-0.147805
3.1175e-05
-0.134132
4.49351e-05
-0.121713
6.15354e-05
-0.110436
8.00195e-05
-0.100196
9.86434e-05
-0.0908985
0.000115047
-0.0824599
0.000126827
-0.0747973
0.000132191
-0.067857
0.00013052
-0.0615581
0.000122548
-0.0558539
0.000109816
-0.0506824
9.42453e-05
-0.0459899
7.75005e-05
-0.0417359
6.07773e-05
-0.0378768
4.47678e-05
-0.0343745
2.98381e-05
-0.0311964
1.61375e-05
-0.0283128
3.73472e-06
-0.0256954
-7.41097e-06
-0.0233203
-1.74902e-05
-0.0211635
-2.6843e-05
-0.0192068
-3.60317e-05
-0.0174305
-4.53997e-05
-0.0158187
-5.51906e-05
-0.0143559
-6.4922e-05
-0.0130281
-7.33165e-05
-0.0118232
-8.09918e-05
-0.0107301
-8.22969e-05
-0.00973763
-0.000106796
-0.00883674
-8.40034e-05
-0.473365
-3.61968e-07
-0.429601
-5.72513e-07
-0.389878
-5.10722e-07
-0.353848
-6.61186e-07
-0.321139
-9.46909e-07
-0.291451
-8.44092e-07
-0.264511
-3.04904e-07
-0.240066
8.71761e-07
-0.217874
2.90832e-06
-0.197738
6.14964e-06
-0.179461
1.10498e-05
-0.162871
1.81461e-05
-0.147813
2.7968e-05
-0.134142
4.0877e-05
-0.121725
5.68672e-05
-0.11045
7.52731e-05
-0.100211
9.46528e-05
-0.0909126
0.000112829
-0.0824721
0.000127269
-0.0748063
0.000135808
-0.0678621
0.000137279
-0.0615594
0.000131815
-0.0558521
0.000120763
-0.0506785
0.00010596
-0.0459849
8.93003e-05
-0.0417306
7.22245e-05
-0.0378716
5.56593e-05
-0.0343698
4.00738e-05
-0.0311922
2.56762e-05
-0.0283092
1.25445e-05
-0.0256923
7.0434e-07
-0.0233177
-9.91994e-06
-0.0211615
-1.9537e-05
-0.0192052
-2.85025e-05
-0.0174291
-3.73824e-05
-0.0158176
-4.65216e-05
-0.0143549
-5.61674e-05
-0.0130272
-6.57842e-05
-0.0118225
-7.40438e-05
-0.0107294
-8.15933e-05
-0.00973735
-8.25247e-05
-0.00883643
-0.000107084
-0.00801367
-7.91659e-05
-0.473365
-3.21701e-07
-0.429601
-4.25065e-07
-0.389878
-4.543e-07
-0.353848
-6.36911e-07
-0.321139
-8.90487e-07
-0.291451
-8.53777e-07
-0.264511
-4.30501e-07
-0.240067
5.67891e-07
-0.217875
2.34516e-06
-0.19774
5.21272e-06
-0.179465
9.59345e-06
-0.162876
1.60048e-05
-0.147819
2.49916e-05
-0.134151
3.70195e-05
-0.121736
5.22429e-05
-0.110464
7.02967e-05
-0.100226
9.00453e-05
-0.0909276
0.000109562
-0.0824857
0.000126362
-0.074817
0.000137968
-0.067869
0.000142708
-0.0615623
0.000140157
-0.0558515
0.000131166
-0.0506753
0.000117535
-0.0459802
0.000101207
-0.0417252
8.39134e-05
-0.0378662
6.68269e-05
-0.0343647
5.06159e-05
-0.0311877
3.55532e-05
-0.0283052
2.17426e-05
-0.025689
9.19521e-06
-0.0233149
-2.09545e-06
-0.0211591
-1.22221e-05
-0.0192033
-2.14117e-05
-0.0174276
-3.00066e-05
-0.0158164
-3.86161e-05
-0.0143538
-4.75563e-05
-0.0130263
-5.70679e-05
-0.0118217
-6.65783e-05
-0.0107288
-7.47086e-05
-0.00973679
-8.21462e-05
-0.00883608
-8.28444e-05
-0.00801775
-0.000102982
-0.0072538
-7.138e-05
-0.473365
-3.02099e-07
-0.429601
-3.76161e-07
-0.389878
-4.53537e-07
-0.353848
-6.52344e-07
-0.321139
-8.54381e-07
-0.291452
-8.49542e-07
-0.264512
-5.16748e-07
-0.240067
3.23951e-07
-0.217877
1.86487e-06
-0.197742
4.39357e-06
-0.179468
8.29703e-06
-0.16288
1.40702e-05
-0.147826
2.22581e-05
-0.134159
3.33796e-05
-0.121747
4.77543e-05
-0.110477
6.52245e-05
-0.10024
8.49966e-05
-0.0909429
0.000105429
-0.0825003
0.000124185
-0.0748293
0.000138665
-0.0678777
0.000146708
-0.0615669
0.000147329
-0.0558522
0.000140876
-0.0506729
0.000128798
-0.0459758
0.000113153
-0.0417198
9.58172e-05
-0.0378606
7.82803e-05
-0.0343593
6.14364e-05
-0.0311828
4.57221e-05
-0.0283009
3.12562e-05
-0.0256853
1.80474e-05
-0.0233118
6.07578e-06
-0.0211566
-4.6885e-06
-0.0192012
-1.43492e-05
-0.0174259
-2.31318e-05
-0.015815
-3.1388e-05
-0.0143527
-3.97325e-05
-0.0130254
-4.84844e-05
-0.0118209
-5.7879e-05
-0.010728
-6.72948e-05
-0.00973617
-7.53059e-05
-0.00883558
-8.26241e-05
-0.00801858
-8.19733e-05
-0.00726355
-9.32187e-05
-0.00655798
-6.28329e-05
-0.473365
-2.83387e-07
-0.429601
-3.97462e-07
-0.389878
-4.94383e-07
-0.353847
-6.89536e-07
-0.321139
-8.38641e-07
-0.291452
-8.40822e-07
-0.264512
-5.72078e-07
-0.240068
1.32947e-07
-0.217878
1.4625e-06
-0.197744
3.68339e-06
-0.17947
7.15296e-06
-0.162885
1.23331e-05
-0.147831
1.97627e-05
-0.134167
2.99902e-05
-0.121757
4.34375e-05
-0.110489
6.01777e-05
-0.100255
7.96615e-05
-0.0909586
0.000100607
-0.0825157
0.000120892
-0.074843
0.000137917
-0.0678883
0.000149216
-0.0615734
0.000153188
-0.0558545
0.000149632
-0.0506717
0.000139611
-0.045972
0.000124992
-0.0417146
0.000107895
-0.0378548
9.00136e-05
-0.0343536
7.25536e-05
-0.0311775
5.61461e-05
-0.0282962
4.10303e-05
-0.0256812
2.7198e-05
-0.0233084
1.46058e-05
-0.0211537
3.19405e-06
-0.0191988
-7.07317e-06
-0.017424
-1.62926e-05
-0.0158134
-2.47004e-05
-0.0143515
-3.26342e-05
-0.0130244
-4.07518e-05
-0.01182
-4.93419e-05
-0.0107273
-5.86265e-05
-0.00973551
-6.79535e-05
-0.00883501
-7.58683e-05
-0.00801862
-8.25764e-05
-0.00726935
-7.61454e-05
-0.00656959
-8.15968e-05
-0.00592436
-5.46255e-05
-0.473365
-2.52757e-07
-0.429601
-4.52905e-07
-0.389877
-5.58001e-07
-0.353847
-7.29122e-07
-0.321139
-8.3566e-07
-0.291452
-8.29992e-07
-0.264512
-6.05342e-07
-0.240069
-1.31144e-08
-0.217879
1.13135e-06
-0.197745
3.07542e-06
-0.179473
6.14764e-06
-0.162888
1.07844e-05
-0.147836
1.74983e-05
-0.134174
2.68569e-05
-0.121767
3.93537e-05
-0.110501
5.52208e-05
-0.100269
7.41993e-05
-0.0909742
9.52722e-05
-0.0825318
0.000116652
-0.074858
0.000135835
-0.0679005
0.000150174
-0.0615818
0.000157603
-0.0558586
0.000157253
-0.0506717
0.000149712
-0.045969
0.000136615
-0.0417096
0.000120048
-0.0378489
0.000102028
-0.0343476
8.39937e-05
-0.0311718
6.68635e-05
-0.0282911
5.10329e-05
-0.0256768
3.65803e-05
-0.0233046
2.34055e-05
-0.0211505
1.14071e-05
-0.0191961
5.24727e-07
-0.0174218
-9.27389e-06
-0.0158116
-1.80819e-05
-0.01435
-2.61337e-05
-0.0130232
-3.37785e-05
-0.0118191
-4.16736e-05
-0.0107265
-5.01099e-05
-0.00973482
-5.92971e-05
-0.0088344
-6.85469e-05
-0.00801814
-7.63262e-05
-0.00727329
-7.86207e-05
-0.00657824
-6.74727e-05
-0.00593592
-7.00313e-05
-0.00534994
-4.71261e-05
-0.473365
-2.18216e-07
-0.429601
-5.05213e-07
-0.389877
-6.31264e-07
-0.353847
-7.58565e-07
-0.321139
-8.31113e-07
-0.291452
-8.16982e-07
-0.264512
-6.2216e-07
-0.240069
-1.22346e-07
-0.21788
8.61277e-07
-0.197747
2.56229e-06
-0.179475
5.27387e-06
-0.162891
9.40844e-06
-0.147841
1.54601e-05
-0.13418
2.39821e-05
-0.121775
3.55242e-05
-0.110512
5.04443e-05
-0.100282
6.86968e-05
-0.0909896
8.96077e-05
-0.0825481
0.000111641
-0.0748739
0.000132556
-0.0679143
0.000149638
-0.0615921
0.000160455
-0.0558645
0.000163566
-0.0506734
0.000158911
-0.0459671
0.000147782
-0.0417052
0.000132195
-0.0378431
0.000114257
-0.0343413
9.57803e-05
-0.0311658
7.79118e-05
-0.0282856
6.13019e-05
-0.0256719
4.61462e-05
-0.0233004
3.23952e-05
-0.0211469
1.987e-05
-0.0191932
8.45102e-06
-0.0174193
-1.92898e-06
-0.0158096
-1.12881e-05
-0.0143484
-1.97085e-05
-0.0130219
-2.74378e-05
-0.0118181
-3.48094e-05
-0.0107257
-4.25151e-05
-0.00973412
-5.08199e-05
-0.00883378
-5.99177e-05
-0.00801758
-6.91001e-05
-0.00727493
-7.46838e-05
-0.0065865
-7.036e-05
-0.005945
-5.83694e-05
-0.00536052
-5.94387e-05
-0.00483053
-4.05744e-05
-0.473365
-1.89605e-07
-0.4296
-5.32775e-07
-0.389877
-6.89662e-07
-0.353847
-7.72229e-07
-0.321138
-8.14442e-07
-0.291452
-7.98272e-07
-0.264513
-6.26812e-07
-0.24007
-2.01738e-07
-0.21788
6.45067e-07
-0.197748
2.12959e-06
-0.179477
4.52279e-06
-0.162894
8.19691e-06
-0.147845
1.36296e-05
-0.134186
2.13672e-05
-0.121783
3.19671e-05
-0.110522
4.58951e-05
-0.100295
6.32851e-05
-0.0910046
8.37288e-05
-0.0825646
0.000106062
-0.0748905
0.000128239
-0.0679295
0.000147691
-0.0616041
0.000161724
-0.0558725
0.000168383
-0.0506768
0.000166997
-0.0459665
0.000158298
-0.0417015
0.000144123
-0.0378376
0.000126659
-0.034335
0.00010789
-0.0311593
8.93497e-05
-0.0282795
7.1898e-05
-0.0256665
5.59464e-05
-0.0232958
4.15268e-05
-0.021143
2.84878e-05
-0.0191899
1.65992e-05
-0.0174166
5.71845e-06
-0.0158074
-4.19252e-06
-0.0143465
-1.3139e-05
-0.0130204
-2.12025e-05
-0.0118169
-2.86282e-05
-0.0107247
-3.57573e-05
-0.00973335
-4.3275e-05
-0.00883313
-5.14549e-05
-0.00801701
-6.04803e-05
-0.00727517
-6.88497e-05
-0.0065932
-6.7954e-05
-0.00595429
-6.10549e-05
-0.005369
-4.98755e-05
-0.00483981
-5.01405e-05
-0.0043617
-3.48944e-05
-0.473364
-1.77409e-07
-0.4296
-5.31946e-07
-0.389877
-7.11463e-07
-0.353847
-7.62991e-07
-0.321138
-7.79639e-07
-0.291452
-7.71235e-07
-0.264513
-6.22281e-07
-0.24007
-2.57552e-07
-0.217881
4.72634e-07
-0.197749
1.77051e-06
-0.179479
3.87589e-06
-0.162897
7.14183e-06
-0.147849
1.20008e-05
-0.134192
1.89947e-05
-0.121791
2.86947e-05
-0.110532
4.16087e-05
-0.100307
5.80355e-05
-0.0910191
7.78013e-05
-0.0825809
0.000100046
-0.0749075
0.000123093
-0.0679457
0.000144459
-0.0616179
0.000161435
-0.0558824
0.000171621
-0.0506822
0.000173739
-0.0459674
0.000167946
-0.0416989
0.000155662
-0.0378325
0.000139059
-0.0343286
0.000120314
-0.0311526
0.00010118
-0.0282731
8.28923e-05
-0.0256607
6.60444e-05
-0.0232907
5.08447e-05
-0.0211387
3.71926e-05
-0.0191863
2.48577e-05
-0.0174135
1.35706e-05
-0.0158048
3.20639e-06
-0.0143445
-6.26258e-06
-0.0130187
-1.48265e-05
-0.0118155
-2.25576e-05
-0.0107236
-2.97104e-05
-0.00973249
-3.66095e-05
-0.00883243
-4.39693e-05
-0.00801642
-5.20468e-05
-0.0072748
-6.08488e-05
-0.0065979
-6.41565e-05
-0.00596308
-5.9165e-05
-0.0053779
-5.21531e-05
-0.00484726
-4.24096e-05
-0.00436966
-4.21794e-05
-0.00393888
-3.00952e-05
-0.473364
-1.91746e-07
-0.4296
-5.01675e-07
-0.389877
-6.85348e-07
-0.353847
-7.26584e-07
-0.321138
-7.27311e-07
-0.291452
-7.35156e-07
-0.264513
-6.10109e-07
-0.24007
-2.95836e-07
-0.217882
3.36491e-07
-0.19775
1.47044e-06
-0.17948
3.32692e-06
-0.162899
6.21875e-06
-0.147853
1.05664e-05
-0.134197
1.6862e-05
-0.121797
2.5694e-05
-0.110541
3.76169e-05
-0.100319