/*--------------------------------*- C++ -*----------------------------------*\
  =========                 |
  \\      /  F ield         | OpenFOAM: The Open Source CFD Toolbox
   \\    /   O peration     | Website:  https://openfoam.org
    \\  /    A nd           | Version:  dev
     \\/     M anipulation  |
\*---------------------------------------------------------------------------*/
FoamFile
{
    version     2.0;
    format      ascii;
    class       volVectorField;
    location    "450";
    object      U;
}
// * * * * * * * * * * * * * * * * * * * * * * * * * * * * * * * * * * * * * //

dimensions      [0 1 -1 0 0 0 0];

internalField   nonuniform List<vector> 
29380
(
(51.0555 0.00425974 0)
(51.0554 0.00226917 0)
(51.0642 -0.000234438 0)
(51.0559 -0.000506953 0)
(51.0598 0.00148892 0)
(51.0722 -0.00154486 0)
(51.0563 -0.00264678 0)
(51.0587 0.00207898 0)
(51.0706 -0.00125386 0)
(51.0709 -0.00216703 0)
(51.0568 -0.0037543 0)
(51.0592 0.00245431 0)
(51.0695 0.000115531 0)
(51.0712 -0.00151153 0)
(51.0714 -0.0013472 0)
(51.0574 -0.00346366 0)
(51.0611 0.00276862 0)
(51.0692 0.00174458 0)
(51.0718 0.00060627 0)
(51.0726 -0.000308994 0)
(51.0763 -0.00132881 0)
(51.0582 -0.00193924 0)
(51.0639 0.00304485 0)
(51.0696 0.00329454 0)
(51.0723 0.00282624 0)
(51.0737 0.00103582 0)
(51.0764 3.29741e-05 0)
(51.078 -0.00141672 0)
(51.059 0.000279579 0)
(51.0666 0.00322748 0)
(51.0703 0.00432894 0)
(51.0724 0.00461177 0)
(51.0742 0.00224723 0)
(51.0761 0.00133309 0)
(51.0774 -0.000417942 0)
(51.0792 -0.00176051 0)
(51.0598 0.00250362 0)
(51.0686 0.00314123 0)
(51.071 0.00458121 0)
(51.0722 0.00547084 0)
(51.074 0.00304671 0)
(51.0754 0.00232881 0)
(51.0767 0.000427092 0)
(51.0783 -0.000943068 0)
(51.0799 -0.0024301 0)
(51.0604 0.00413649 0)
(51.0697 0.00262944 0)
(51.0714 0.00403501 0)
(51.0717 0.00526217 0)
(51.0733 0.00328998 0)
(51.0747 0.00290629 0)
(51.0758 0.00119158 0)
(51.0774 -0.000124111 0)
(51.0786 -0.00168435 0)
(51.0804 -0.00286401 0)
(51.0607 0.00484431 0)
(51.0698 0.0016577 0)
(51.0713 0.00289882 0)
(51.0712 0.00422349 0)
(51.0724 0.00305475 0)
(51.0739 0.00305105 0)
(51.075 0.00176966 0)
(51.0764 0.000715513 0)
(51.0776 -0.000937164 0)
(51.0789 -0.00220919 0)
(51.0808 -0.00363348 0)
(51.0606 0.00461806 0)
(51.0692 0.000369835 0)
(51.0711 0.00151936 0)
(51.0708 0.00282263 0)
(51.0716 0.00256941 0)
(51.0735 0.00294123 0)
(51.0744 0.00218051 0)
(51.0756 0.00148172 0)
(51.0766 -7.16101e-05 0)
(51.0778 -0.00148685 0)
(51.079 -0.00300696 0)
(51.0811 -0.00419731 0)
(51.0602 0.00371599 0)
(51.0683 -0.000946889 0)
(51.071 0.000268891 0)
(51.0707 0.00157312 0)
(51.0712 0.00210074 0)
(51.0734 0.00281576 0)
(51.0742 0.00252906 0)
(51.0751 0.00217456 0)
(51.0758 0.000819126 0)
(51.0766 -0.000585575 0)
(51.0778 -0.00228255 0)
(51.0792 -0.00362251 0)
(51.0812 -0.00490839 0)
(51.0596 0.00253924 0)
(51.0674 -0.00195234 0)
(51.071 -0.000565117 0)
(51.071 0.000846787 0)
(51.0714 0.00184959 0)
(51.0737 0.00287057 0)
(51.0744 0.00293871 0)
(51.0749 0.00285372 0)
(51.0752 0.00172967 0)
(51.0757 0.000406517 0)
(51.0764 -0.00133754 0)
(51.0778 -0.00291683 0)
(51.0792 -0.00437799 0)
(51.0813 -0.00549074 0)
(51.059 0.00148541 0)
(51.0668 -0.00237379 0)
(51.0714 -0.000846241 0)
(51.0715 0.000769881 0)
(51.072 0.00189313 0)
(51.0744 0.00318711 0)
(51.0749 0.00349106 0)
(51.0751 0.00359661 0)
(51.0749 0.00268729 0)
(51.075 0.00148022 0)
(51.0753 -0.000254604 0)
(51.0762 -0.00195823 0)
(51.0777 -0.00369743 0)
(51.0791 -0.00501541 0)
(51.0813 -0.00612751 0)
(51.0585 0.000832789 0)
(51.0665 -0.00209523 0)
(51.0721 -0.000612763 0)
(51.0723 0.00121147 0)
(51.0728 0.00218149 0)
(51.0753 0.0037194 0)
(51.0757 0.00419545 0)
(51.0756 0.00445374 0)
(51.075 0.00373486 0)
(51.0745 0.0026503 0)
(51.0744 0.000958444 0)
(51.0749 -0.000818925 0)
(51.076 -0.00274059 0)
(51.0775 -0.00437273 0)
(51.0789 -0.0057021 0)
(51.0812 -0.00667755 0)
(51.0583 0.000682363 0)
(51.0664 -0.00119256 0)
(51.0729 -4.92007e-05 0)
(51.073 0.00186114 0)
(51.0737 0.00257998 0)
(51.0762 0.00432995 0)
(51.0766 0.00498894 0)
(51.0762 0.00542578 0)
(51.0753 0.0049005 0)
(51.0744 0.00394887 0)
(51.0738 0.00231283 0)
(51.0738 0.000496 0)
(51.0744 -0.00156618 0)
(51.0756 -0.00344095 0)
(51.0772 -0.00509576 0)
(51.0787 -0.00630672 0)
(51.081 -0.00723027 0)
(51.0582 0.000962215 0)
(51.0665 9.57153e-05 0)
(51.0737 0.000574878 0)
(51.0737 0.00235561 0)
(51.0746 0.00293133 0)
(51.0772 0.00485421 0)
(51.0776 0.00576466 0)
(51.0771 0.00646096 0)
(51.0759 0.0061805 0)
(51.0746 0.00539771 0)
(51.0735 0.00383753 0)
(51.073 0.00199589 0)
(51.0731 -0.000174257 0)
(51.074 -0.00226054 0)
(51.0753 -0.00419962 0)
(51.077 -0.00573634 0)
(51.0785 -0.00691433 0)
(51.0808 -0.00771087 0)
(51.0583 0.0014813 0)
(51.0666 0.00144449 0)
(51.0742 0.000985049 0)
(51.0742 0.00240478 0)
(51.0752 0.00310996 0)
(51.0782 0.00516223 0)
(51.0786 0.00641156 0)
(51.0781 0.0074725 0)
(51.0767 0.00753304 0)
(51.0751 0.00699198 0)
(51.0735 0.00555406 0)
(51.0724 0.00370804 0)
(51.072 0.00144445 0)
(51.0724 -0.000826328 0)
(51.0734 -0.0030331 0)
(51.0749 -0.00488713 0)
(51.0767 -0.00637608 0)
(51.0782 -0.00745635 0)
(51.0805 -0.00817459 0)
(51.0586 0.00200709 0)
(51.0666 0.00253739 0)
(51.0744 0.000978693 0)
(51.0746 0.0018803 0)
(51.0757 0.00305394 0)
(51.0791 0.00519641 0)
(51.0797 0.00684939 0)
(51.0792 0.00836547 0)
(51.0777 0.0088844 0)
(51.0758 0.00869078 0)
(51.0738 0.00745912 0)
(51.0721 0.00565438 0)
(51.0712 0.00331459 0)
(51.071 0.000871978 0)
(51.0717 -0.00158584 0)
(51.0729 -0.00375267 0)
(51.0745 -0.0055813 0)
(51.0763 -0.00694682 0)
(51.0779 -0.00798529 0)
(51.0803 -0.0085812 0)
(51.0588 0.00233767 0)
(51.0665 0.00315095 0)
(51.0743 0.000479802 0)
(51.0748 0.000840402 0)
(51.0762 0.00276821 0)
(51.08 0.00497592 0)
(51.0807 0.00704814 0)
(51.0805 0.00906371 0)
(51.079 0.0101458 0)
(51.0769 0.0104211 0)
(51.0744 0.00951421 0)
(51.0722 0.0078359 0)
(51.0706 0.00545887 0)
(51.0699 0.00285696 0)
(51.0701 0.000155492 0)
(51.071 -0.00231986 0)
(51.0724 -0.00449144 0)
(51.0741 -0.00621469 0)
(51.076 -0.00749666 0)
(51.0776 -0.0084649 0)
(51.0801 -0.00896276 0)
(51.059 0.00234947 0)
(51.0662 0.00320829 0)
(51.0739 -0.00044282 0)
(51.075 -0.00050636 0)
(51.0766 0.00230747 0)
(51.0808 0.00457453 0)
(51.0818 0.0070275 0)
(51.0818 0.00952782 0)
(51.0804 0.0112349 0)
(51.0781 0.0120921 0)
(51.0753 0.0116477 0)
(51.0726 0.0102209 0)
(51.0704 0.00788365 0)
(51.0691 0.00515191 0)
(51.0687 0.00221291 0)
(51.0692 -0.000571212 0)
(51.0704 -0.00309298 0)
(51.0719 -0.00517919 0)
(51.0737 -0.00683246 0)
(51.0757 -0.00798804 0)
(51.0774 -0.00893117 0)
(51.08 -0.00929673 0)
(51.0592 0.00200765 0)
(51.0658 0.00278987 0)
(51.0733 -0.0015942 0)
(51.0751 -0.00188011 0)
(51.0771 0.00175025 0)
(51.0815 0.004085 0)
(51.0829 0.00684086 0)
(51.0832 0.00975925 0)
(51.0819 0.0120932 0)
(51.0796 0.0136144 0)
(51.0765 0.0137682 0)
(51.0733 0.0127452 0)
(51.0705 0.0105683 0)
(51.0685 0.00777044 0)
(51.0675 0.00461257 0)
(51.0675 0.00151562 0)
(51.0683 -0.00136362 0)
(51.0697 -0.00383011 0)
(51.0714 -0.00585701 0)
(51.0733 -0.00739701 0)
(51.0754 -0.00845398 0)
(51.0772 -0.00936732 0)
(51.0798 -0.00959759 0)
(51.0593 0.0013473 0)
(51.0653 0.00210492 0)
(51.0727 -0.00270684 0)
(51.0753 -0.00301888 0)
(51.0777 0.00117463 0)
(51.0823 0.00358716 0)
(51.084 0.00655211 0)
(51.0846 0.00979228 0)
(51.0836 0.012698 0)
(51.0813 0.0149193 0)
(51.0781 0.0157822 0)
(51.0744 0.0153223 0)
(51.071 0.013462 0)
(51.0683 0.0107053 0)
(51.0666 0.00737574 0)
(51.066 0.00397061 0)
(51.0664 0.000718524 0)
(51.0675 -0.00214014 0)
(51.0691 -0.00456701 0)
(51.071 -0.00648547 0)
(51.073 -0.00793777 0)
(51.0751 -0.00887763 0)
(51.077 -0.00978711 0)
(51.0796 -0.00985222 0)
(51.0593 0.000440559 0)
(51.0649 0.00143115 0)
(51.0722 -0.00350863 0)
(51.0756 -0.00374948 0)
(51.0784 0.000642316 0)
(51.083 0.00312885 0)
(51.085 0.00621454 0)
(51.0861 0.00967697 0)
(51.0853 0.0130599 0)
(51.0832 0.0159685 0)
(51.0799 0.0176126 0)
(51.0759 0.0178593 0)
(51.0718 0.0164905 0)
(51.0684 0.0139236 0)
(51.066 0.0105096 0)
(51.0647 0.00682403 0)
(51.0646 0.00318708 0)
(51.0654 -9.00455e-05 0)
(51.0668 -0.00292953 0)
(51.0685 -0.00526146 0)
(51.0705 -0.00708931 0)
(51.0726 -0.00843771 0)
(51.0748 -0.00927219 0)
(51.0768 -0.0101779 0)
(51.0794 -0.0100715 0)
(51.0593 -0.000632023 0)
(51.0645 0.00103732 0)
(51.0717 -0.0037922 0)
(51.0759 -0.00401849 0)
(51.0791 0.000193483 0)
(51.0837 0.00272283 0)
(51.086 0.0058582 0)
(51.0875 0.00946129 0)
(51.0871 0.013214 0)
(51.0853 0.016756 0)
(51.0819 0.0192079 0)
(51.0777 0.0202723 0)
(51.0731 0.0195665 0)
(51.0689 0.0173682 0)
(51.0657 0.0139999 0)
(51.0637 0.0100973 0)
(51.063 0.00608033 0)
(51.0633 0.00235551 0)
(51.0644 -0.000930417 0)
(51.066 -0.00368548 0)
(51.0679 -0.00593315 0)
(51.0701 -0.0076499 0)
(51.0723 -0.00891053 0)
(51.0746 -0.00962485 0)
(51.0766 -0.0105499 0)
(51.0792 -0.01025 0)
(51.0593 -0.0017904 0)
(51.0642 0.00110986 0)
(51.0714 -0.00346653 0)
(51.0763 -0.00388307 0)
(51.0797 -0.000152572 0)
(51.0843 0.00235688 0)
(51.087 0.00548895 0)
(51.0888 0.00917769 0)
(51.0889 0.0132026 0)
(51.0874 0.0172992 0)
(51.0842 0.020544 0)
(51.0798 0.0224959 0)
(51.0747 0.0226029 0)
(51.0698 0.0209638 0)
(51.0657 0.0178092 0)
(51.0629 0.0137948 0)
(51.0615 0.00943361 0)
(51.0614 0.00524156 0)
(51.0621 0.00146533 0)
(51.0635 -0.00175061 0)
(51.0653 -0.00442269 0)
(51.0674 -0.00656107 0)
(51.0697 -0.00818165 0)
(51.0721 -0.00934414 0)
(51.0744 -0.00994603 0)
(51.0764 -0.010898 0)
(51.079 -0.0103982 0)
(51.0594 -0.00294715 0)
(51.0641 0.00169614 0)
(51.0711 -0.00258091 0)
(51.0766 -0.00347236 0)
(51.0803 -0.000390709 0)
(51.0849 0.00200847 0)
(51.0879 0.00509587 0)
(51.0901 0.00883856 0)
(51.0907 0.0130623 0)
(51.0896 0.0176265 0)
(51.0867 0.0216173 0)
(51.0823 0.0244854 0)
(51.0768 0.0255216 0)
(51.0713 0.0246259 0)
(51.0663 0.0218792 0)
(51.0625 0.0179 0)
(51.0603 0.0132696 0)
(51.0595 0.00861619 0)
(51.0599 0.00430674 0)
(51.061 0.000575178 0)
(51.0627 -0.00256037 0)
(51.0647 -0.00511702 0)
(51.067 -0.00715993 0)
(51.0694 -0.00867327 0)
(51.0719 -0.00974828 0)
(51.0742 -0.0102306 0)
(51.0762 -0.0112299 0)
(51.0788 -0.0105139 0)
(51.0595 -0.00399613 0)
(51.0642 0.00268448 0)
(51.0709 -0.00131826 0)
(51.0768 -0.00294151 0)
(51.0808 -0.000527474 0)
(51.0855 0.0016597 0)
(51.0887 0.00466438 0)
(51.0913 0.00844076 0)
(51.0923 0.0128141 0)
(51.0918 0.0177642 0)
(51.0892 0.0224351 0)
(51.085 0.0262134 0)
(51.0794 0.0282577 0)
(51.0732 0.0282689 0)
(51.0673 0.0261359 0)
(51.0626 0.0223746 0)
(51.0594 0.0175933 0)
(51.0578 0.0125199 0)
(51.0576 0.00765276 0)
(51.0585 0.00334243 0)
(51.06 -0.000318438 0)
(51.0619 -0.00333128 0)
(51.0641 -0.00578247 0)
(51.0666 -0.00771885 0)
(51.0692 -0.00913358 0)
(51.0717 -0.0101168 0)
(51.0739 -0.0104864 0)
(51.0759 -0.0115419 0)
(51.0786 -0.010606 0)
(51.0597 -0.00481107 0)
(51.0643 0.00382506 0)
(51.0707 4.14367e-05 0)
(51.0769 -0.0024334 0)
(51.0812 -0.00057843 0)
(51.0859 0.0013047 0)
(51.0894 0.00418726 0)
(51.0923 0.00797557 0)
(51.0939 0.012465 0)
(51.0939 0.0177301 0)
(51.0919 0.0230058 0)
(51.088 0.0276627 0)
(51.0823 0.030759 0)
(51.0756 0.0318112 0)
(51.0689 0.0304952 0)
(51.0631 0.0271617 0)
(51.0588 0.0223893 0)
(51.0563 0.0169795 0)
(51.0555 0.0115603 0)
(51.0559 0.00661841 0)
(51.0572 0.00235287 0)
(51.059 -0.00118203 0)
(51.0612 -0.00407517 0)
(51.0637 -0.00640783 0)
(51.0663 -0.00824558 0)
(51.0689 -0.0095555 0)
(51.0715 -0.0104567 0)
(51.0737 -0.0107106 0)
(51.0757 -0.0118406 0)
(51.0784 -0.0106724 0)
(51.0599 -0.00527022 0)
(51.0645 0.0047871 0)
(51.0704 0.00118468 0)
(51.0769 -0.00205846 0)
(51.0815 -0.000571828 0)
(51.0863 0.000950432 0)
(51.09 0.00367172 0)
(51.0933 0.00743993 0)
(51.0954 0.0120136 0)
(51.096 0.0175324 0)
(51.0946 0.0233354 0)
(51.0911 0.0288209 0)
(51.0855 0.0329833 0)
(51.0786 0.035179 0)
(51.0711 0.0348687 0)
(51.0642 0.0321884 0)
(51.0588 0.027622 0)
(51.0552 0.0220032 0)
(51.0535 0.0160769 0)
(51.0533 0.0104741 0)
(51.0543 0.00552719 0)
(51.056 0.00137852 0)
(51.0582 -0.00202282 0)
(51.0606 -0.00477904 0)
(51.0632 -0.00699978 0)
(51.066 -0.00873179 0)
(51.0687 -0.00994533 0)
(51.0712 -0.0107644 0)
(51.0734 -0.0109112 0)
(51.0755 -0.0121232 0)
(51.0782 -0.0107198 0)
(51.0601 -0.00529274 0)
(51.0648 0.00524915 0)
(51.0701 0.00183563 0)
(51.0769 -0.00188343 0)
(51.0817 -0.000549573 0)
(51.0867 0.000609577 0)
(51.0906 0.0031378 0)
(51.0942 0.00684334 0)
(51.0968 0.0114611 0)
(51.098 0.0171757 0)
(51.0972 0.0234273 0)
(51.0943 0.0296776 0)
(51.089 0.0348946 0)
(51.082 0.038305 0)
(51.0739 0.0391667 0)
(51.066 0.0373695 0)
(51.0593 0.0332374 0)
(51.0545 0.0275803 0)
(51.0517 0.0212345 0)
(51.0509 0.014976 0)
(51.0514 0.00928709 0)
(51.0529 0.00442848 0)
(51.055 0.000418701 0)
(51.0574 -0.00282486 0)
(51.0601 -0.00544848 0)
(51.0629 -0.00754903 0)
(51.0657 -0.00918306 0)
(51.0684 -0.0102993 0)
(51.071 -0.0110473 0)
(51.0731 -0.0110874 0)
(51.0753 -0.012394 0)
(51.0779 -0.0107467 0)
(51.0602 -0.00487501 0)
(51.065 0.00498691 0)
(51.0698 0.00182996 0)
(51.0768 -0.00192754 0)
(51.0818 -0.000564392 0)
(51.0869 0.000291684 0)
(51.0911 0.0026117 0)
(51.0951 0.00620812 0)
(51.0981 0.0108186 0)
(51.0999 0.0166683 0)
(51.0998 0.0232878 0)
(51.0975 0.0302266 0)
(51.0927 0.0364631 0)
(51.0857 0.0411291 0)
(51.0773 0.0433006 0)
(51.0684 0.0426102 0)
(51.0605 0.0391631 0)
(51.0543 0.0336797 0)
(51.0503 0.0270476 0)
(51.0485 0.0201782 0)
(51.0484 0.0137149 0)
(51.0496 0.00805929 0)
(51.0516 0.00333025 0)
(51.0541 -0.000505988 0)
(51.0568 -0.0035919 0)
(51.0597 -0.00607316 0)
(51.0626 -0.00806042 0)
(51.0654 -0.00959515 0)
(51.0681 -0.0106245 0)
(51.0707 -0.0113042 0)
(51.0729 -0.0112456 0)
(51.0751 -0.0126497 0)
(51.0777 -0.0107589 0)
(51.0604 -0.00410605 0)
(51.0652 0.00394524 0)
(51.0695 0.00115898 0)
(51.0766 -0.00215661 0)
(51.0819 -0.000669353 0)
(51.0871 -4.41366e-06 0)
(51.0915 0.00211538 0)
(51.0958 0.00556318 0)
(51.0992 0.0101094 0)
(51.1016 0.0160284 0)
(51.1022 0.022931 0)
(51.1007 0.0304691 0)
(51.0965 0.0376664 0)
(51.0898 0.0435974 0)
(51.0812 0.047184 0)
(51.0716 0.0478077 0)
(51.0624 0.0453095 0)
(51.0547 0.0402494 0)
(51.0494 0.033511 0)
(51.0464 0.0261195 0)
(51.0455 0.0188838 0)
(51.0462 0.0123661 0)
(51.048 0.00680977 0)
(51.0505 0.00225943 0)
(51.0533 -0.00139652 0)
(51.0563 -0.00431267 0)
(51.0593 -0.00665722 0)
(51.0622 -0.00852945 0)
(51.0651 -0.00997459 0)
(51.0678 -0.0109201 0)
(51.0705 -0.0115419 0)
(51.0726 -0.0113845 0)
(51.0748 -0.0128931 0)
(51.0774 -0.0107565 0)
(51.0604 -0.00314213 0)
(51.0654 0.00226883 0)
(51.0692 -2.68135e-05 0)
(51.0765 -0.00248439 0)
(51.082 -0.000899803 0)
(51.0873 -0.000291617 0)
(51.0919 0.00165859 0)
(51.0964 0.00493473 0)
(51.1003 0.00936436 0)
(51.1032 0.0152846 0)
(51.1046 0.0223821 0)
(51.1038 0.0304183 0)
(51.1004 0.0384934 0)
(51.0942 0.0456658 0)
(51.0855 0.0507356 0)
(51.0754 0.0528536 0)
(51.0651 0.0515701 0)
(51.0559 0.047215 0)
(51.049 0.0405982 0)
(51.0446 0.0328208 0)
(51.0427 0.0248538 0)
(51.0428 0.0174368 0)
(51.0442 0.0109617 0)
(51.0466 0.00557351 0)
(51.0495 0.00121944 0)
(51.0526 -0.00224021 0)
(51.0558 -0.00499022 0)
(51.0589 -0.00719557 0)
(51.0619 -0.00896185 0)
(51.0648 -0.0103202 0)
(51.0675 -0.011193 0)
(51.0702 -0.0117584 0)
(51.0723 -0.0115085 0)
(51.0746 -0.0131222 0)
(51.0772 -0.0107446 0)
(51.0605 -0.00217431 0)
(51.0654 0.000264494 0)
(51.069 -0.00145523 0)
(51.0764 -0.00279009 0)
(51.0821 -0.0012568 0)
(51.0874 -0.000588428 0)
(51.0922 0.00123577 0)
(51.097 0.00433787 0)
(51.1012 0.00861447 0)
(51.1047 0.0144728 0)
(51.1068 0.0216767 0)
(51.1068 0.0301005 0)
(51.1042 0.0389474 0)
(51.0987 0.047302 0)
(51.0903 0.0538823 0)
(51.0798 0.0576392 0)
(51.0685 0.0578243 0)
(51.0579 0.054479 0)
(51.0493 0.0482585 0)
(51.0434 0.0402837 0)
(51.0402 0.0316709 0)
(51.0394 0.0233495 0)
(51.0403 0.0158853 0)
(51.0425 0.0095475 0)
(51.0453 0.0043606 0)
(51.0486 0.000225387 0)
(51.052 -0.00303842 0)
(51.0554 -0.00561869 0)
(51.0586 -0.00769307 0)
(51.0616 -0.00935612 0)
(51.0645 -0.0106391 0)
(51.0673 -0.0114421 0)
(51.07 -0.0119581 0)
(51.0721 -0.0116164 0)
(51.0744 -0.0133394 0)
(51.077 -0.0107231 0)
(51.0604 -0.0013701 0)
(51.0654 -0.00166618 0)
(51.0688 -0.00281787 0)
(51.0763 -0.0029524 0)
(51.0822 -0.00170045 0)
(51.0875 -0.00090844 0)
(51.0925 0.000830389 0)
(51.0975 0.00377323 0)
(51.1021 0.00788141 0)
(51.1061 0.0136277 0)
(51.1088 0.0208559 0)
(51.1097 0.0295537 0)
(51.108 0.0390481 0)
(51.1033 0.0484915 0)
(51.0954 0.0565652 0)
(51.0848 0.06206 0)
(51.0728 0.0639422 0)
(51.0608 0.061921 0)
(51.0504 0.0564144 0)
(51.0427 0.0484868 0)
(51.038 0.0393647 0)
(51.0361 0.0301713 0)
(51.0363 0.0216719 0)
(51.0381 0.0142885 0)
(51.0409 0.00814268 0)
(51.0442 0.00319013 0)
(51.0479 -0.000721651 0)
(51.0515 -0.00378416 0)
(51.055 -0.0062017 0)
(51.0582 -0.00814741 0)
(51.0612 -0.00971915 0)
(51.0642 -0.0109304 0)
(51.067 -0.0116718 0)
(51.0697 -0.0121393 0)
(51.0718 -0.0117123 0)
(51.0742 -0.0135433 0)
(51.0769 -0.0106963 0)
(51.0604 -0.00084293 0)
(51.0653 -0.00314871 0)
(51.0687 -0.00384693 0)
(51.0763 -0.00289574 0)
(51.0823 -0.00215713 0)
(51.0876 -0.00125157 0)
(51.0927 0.000423426 0)
(51.098 0.00322981 0)
(51.1029 0.00717384 0)
(51.1073 0.012776 0)
(51.1107 0.0199593 0)
(51.1124 0.0288228 0)
(51.1116 0.03883 0)
(51.1079 0.0492382 0)
(51.1007 0.0587441 0)
(51.0903 0.0660247 0)
(51.0778 0.0697917 0)
(51.0646 0.0694019 0)
(51.0525 0.0649599 0)
(51.0428 0.0573819 0)
(51.0363 0.0479462 0)
(51.033 0.0379583 0)
(51.0323 0.0284054 0)
(51.0336 0.019897 0)
(51.0361 0.0126776 0)
(51.0395 0.00677262 0)
(51.0433 0.00206681 0)
(51.0472 -0.00161287 0)
(51.051 -0.00447946 0)
(51.0545 -0.00673601 0)
(51.0578 -0.00856512 0)
(51.0608 -0.0100505 0)
(51.0639 -0.0111992 0)
(51.0667 -0.0118808 0)
(51.0695 -0.0123058 0)
(51.0716 -0.011796 0)
(51.0741 -0.0137364 0)
(51.0769 -0.010663 0)
(51.0603 -0.000642791 0)
(51.0653 -0.00393635 0)
(51.0687 -0.00438815 0)
(51.0763 -0.00262326 0)
(51.0823 -0.0025445 0)
(51.0877 -0.00160082 0)
(51.0929 3.09884e-06 0)
(51.0983 0.00269236 0)
(51.1035 0.00648782 0)
(51.1084 0.0119318 0)
(51.1124 0.0190189 0)
(51.1149 0.0279526 0)
(51.1152 0.0383381 0)
(51.1124 0.0495662 0)
(51.1061 0.0604016 0)
(51.0962 0.0694613 0)
(51.0834 0.0752481 0)
(51.0693 0.0767709 0)
(51.0555 0.0737616 0)
(51.0438 0.0668899 0)
(51.0353 0.0574028 0)
(51.0303 0.046754 0)
(51.0284 0.0361646 0)
(51.0289 0.0264689 0)
(51.0311 0.0180712 0)
(51.0344 0.0110872 0)
(51.0383 0.00544734 0)
(51.0425 0.00100225 0)
(51.0466 -0.00244848 0)
(51.0506 -0.0051201 0)
(51.0541 -0.00722746 0)
(51.0574 -0.00894603 0)
(51.0605 -0.0103559 0)
(51.0636 -0.011444 0)
(51.0665 -0.0120728 0)
(51.0694 -0.0124569 0)
(51.0715 -0.0118711 0)
(51.0742 -0.0139165 0)
(51.0771 -0.0106278 0)
(51.0602 -0.000739384 0)
(51.0652 -0.00396791 0)
(51.0688 -0.00442529 0)
(51.0763 -0.00221815 0)
(51.0824 -0.0028001 0)
(51.0877 -0.00192902 0)
(51.0931 -0.000429398 0)
(51.0987 0.00214997 0)
(51.1041 0.0058131 0)
(51.1094 0.0110977 0)
(51.114 0.0180551 0)
(51.1173 0.0269822 0)
(51.1185 0.0376213 0)
(51.1168 0.0495149 0)
(51.1115 0.0615436 0)
(51.1024 0.072322 0)
(51.0897 0.0802028 0)
(51.0748 0.0838747 0)
(51.0596 0.0826631 0)
(51.0458 0.0768982 0)
(51.0351 0.0676917 0)
(51.0281 0.0565839 0)
(51.0247 0.0450219 0)
(51.0242 0.0341 0)
(51.0259 0.0244268 0)
(51.0289 0.0162422 0)
(51.0329 0.009535 0)
(51.0373 0.0041825 0)
(51.0418 -1.6673e-06 0)
(51.0461 -0.00322309 0)
(51.0501 -0.00571077 0)
(51.0537 -0.0076759 0)
(51.057 -0.00929642 0)
(51.0602 -0.0106341 0)
(51.0633 -0.0116689 0)
(51.0663 -0.0122474 0)
(51.0693 -0.0125964 0)
(51.0715 -0.0119363 0)
(51.0743 -0.0140871 0)
(51.0774 -0.0105876 0)
(51.0602 -0.00105286 0)
(51.0651 -0.00339356 0)
(51.0688 -0.00405542 0)
(51.0764 -0.00181188 0)
(51.0824 -0.00290408 0)
(51.0878 -0.00221011 0)
(51.0932 -0.000860566 0)
(51.099 0.00160168 0)
(51.1047 0.00514013 0)
(51.1103 0.0102687 0)
(51.1154 0.0170777 0)
(51.1194 0.0259413 0)
(51.1216 0.0367265 0)
(51.1211 0.049134 0)
(51.117 0.0621975 0)
(51.1087 0.0745863 0)
(51.0965 0.0845698 0)
(51.0812 0.0905679 0)
(51.0647 0.0914931 0)
(51.049 0.0872609 0)
(51.0359 0.0787338 0)
(51.0266 0.067447 0)
(51.0213 0.0550401 0)
(51.0195 0.0428867 0)
(51.0204 0.0318514 0)
(51.0231 0.0223435 0)
(51.027 0.0144376 0)
(51.0316 0.00804239 0)
(51.0364 0.00298285 0)
(51.0411 -0.000937933 0)
(51.0456 -0.00394001 0)
(51.0496 -0.00625115 0)
(51.0533 -0.00808812 0)
(51.0567 -0.00961561 0)
(51.0599 -0.0108896 0)
(51.0631 -0.0118736 0)
(51.0662 -0.0124083 0)
(51.0693 -0.012723 0)
(51.0717 -0.011996 0)
(51.0747 -0.0142452 0)
(51.078 -0.0105653 0)
(51.0601 -0.00146046 0)
(51.0651 -0.00249215 0)
(51.0689 -0.00346303 0)
(51.0764 -0.00152852 0)
(51.0824 -0.00288658 0)
(51.0879 -0.00243121 0)
(51.0934 -0.0012702 0)
(51.0993 0.00105695 0)
(51.1051 0.00446616 0)
(51.1111 0.00943942 0)
(51.1167 0.0160894 0)
(51.1214 0.0248498 0)
(51.1245 0.0356936 0)
(51.1251 0.0484756 0)
(51.1223 0.0624051 0)
(51.1152 0.0762588 0)
(51.1036 0.0882912 0)
(51.0884 0.0967214 0)
(51.0708 0.100076 0)
(51.0533 0.0978046 0)
(51.0378 0.0904095 0)
(51.026 0.0793069 0)
(51.0185 0.0662618 0)
(51.015 0.0529245 0)
(51.0149 0.0404592 0)
(51.017 0.029504 0)
(51.0208 0.0202607 0)
(51.0254 0.0126876 0)
(51.0304 0.00661813 0)
(51.0356 0.00185745 0)
(51.0405 -0.00180837 0)
(51.0451 -0.00459836 0)
(51.0492 -0.00674818 0)
(51.053 -0.00846383 0)
(51.0564 -0.0099082 0)
(51.0597 -0.0111218 0)
(51.0629 -0.0120615 0)
(51.0662 -0.0125548 0)
(51.0695 -0.0128408 0)
(51.072 -0.0120457 0)
(51.0753 -0.0143962 0)
(51.0712 -0.0105707 0)
(51.0601 -0.00183265 0)
(51.0651 -0.00158319 0)
(51.069 -0.00284745 0)
(51.0764 -0.00144503 0)
(51.0823 -0.00281419 0)
(51.0879 -0.00259878 0)
(51.0935 -0.00164004 0)
(51.0995 0.000531992 0)
(51.1055 0.00379658 0)
(51.1118 0.00860899 0)
(51.1178 0.0150913 0)
(51.1232 0.0237203 0)
(51.1272 0.0345539 0)
(51.129 0.0475891 0)
(51.1274 0.0622173 0)
(51.1216 0.0773648 0)
(51.111 0.0913374 0)
(51.0961 0.102232 0)
(51.078 0.10824 0)
(51.0588 0.108335 0)
(51.0409 0.10256 0)
(51.0264 0.0920834 0)
(51.0164 0.078699 0)
(51.0109 0.0642979 0)
(51.0093 0.0503724 0)
(51.0107 0.0378494 0)
(51.0141 0.0271181 0)
(51.0187 0.0182196 0)
(51.0239 0.0110061 0)
(51.0294 0.00527423 0)
(51.0348 0.000806369 0)
(51.0399 -0.002611 0)
(51.0446 -0.00520493 0)
(51.0488 -0.00720209 0)
(51.0526 -0.0088082 0)
(51.0561 -0.0101738 0)
(51.0595 -0.0113344 0)
(51.0629 -0.0122326 0)
(51.0663 -0.0126908 0)
(51.0698 -0.0129457 0)
(51.0725 -0.0120925 0)
(51.0776 -0.0145293 0)
(51.0096 -0.0102958 0)
(51.0601 -0.00205601 0)
(51.0651 -0.000932583 0)
(51.069 -0.00238821 0)
(51.0764 -0.00157058 0)
(51.0823 -0.00276875 0)
(51.0879 -0.00273576 0)
(51.0936 -0.00196049 0)
(51.0997 4.31747e-05 0)
(51.1059 0.00314342 0)
(51.1124 0.0077834 0)
(51.1189 0.0140875 0)
(51.1249 0.0225625 0)
(51.1297 0.0333313 0)
(51.1325 0.0465169 0)
(51.1323 0.0616865 0)
(51.1279 0.0779445 0)
(51.1186 0.093705 0)
(51.1043 0.107024 0)
(51.086 0.115834 0)
(51.0655 0.11865 0)
(51.0454 0.114992 0)
(51.0281 0.10565 0)
(51.0152 0.0923207 0)
(51.0072 0.077068 0)
(51.0039 0.0617122 0)
(51.0041 0.0475218 0)
(51.007 0.0351405 0)
(51.0115 0.0247496 0)
(51.0169 0.016243 0)
(51.0227 0.00941017 0)
(51.0285 0.00401314 0)
(51.0341 -0.000166962 0)
(51.0394 -0.00335223 0)
(51.0441 -0.00576052 0)
(51.0485 -0.00761854 0)
(51.0524 -0.00912084 0)
(51.056 -0.0104164 0)
(51.0594 -0.0115276 0)
(51.063 -0.0123906 0)
(51.0667 -0.012813 0)
(51.0704 -0.013046 0)
(51.0732 -0.0121405 0)
(51.0634 -0.0144387 0)
(50.8607 -0.00942412 0)
(51.0601 -0.00207138 0)
(51.0651 -0.000647309 0)
(51.069 -0.00220682 0)
(51.0764 -0.00187113 0)
(51.0823 -0.00281224 0)
(51.088 -0.00287352 0)
(51.0936 -0.00223257 0)
(51.0999 -0.00039829 0)
(51.1062 0.0025205 0)
(51.113 0.00697447 0)
(51.1198 0.0130871 0)
(51.1263 0.0213861 0)
(51.132 0.032045 0)
(51.1359 0.0452945 0)
(51.1369 0.0608627 0)
(51.134 0.0780465 0)
(51.1261 0.095413 0)
(51.1128 0.111053 0)
(51.0947 0.122729 0)
(51.0734 0.128549 0)
(51.0513 0.127486 0)
(51.0311 0.119833 0)
(51.0151 0.107047 0)
(51.0043 0.0912591 0)
(50.9987 0.0745862 0)
(50.9975 0.058672 0)
(50.9995 0.0444833 0)
(51.0037 0.032408 0)
(51.0092 0.0224335 0)
(51.0153 0.0143541 0)
(51.0215 0.00790499 0)
(51.0277 0.00284029 0)
(51.0335 -0.00106803 0)
(51.0389 -0.00403314 0)
(51.0438 -0.00627116 0)
(51.0482 -0.00799734 0)
(51.0522 -0.0094061 0)
(51.0559 -0.0106363 0)
(51.0596 -0.0117053 0)
(51.0634 -0.0125328 0)
(51.0672 -0.0129285 0)
(51.0714 -0.0131334 0)
(51.068 -0.0122031 0)
(50.9618 -0.0134918 0)
(50.6583 -0.00834587 0)
(51.0601 -0.00185064 0)
(51.065 -0.00069613 0)
(51.0689 -0.00233488 0)
(51.0764 -0.00228974 0)
(51.0822 -0.00297439 0)
(51.088 -0.00303581 0)
(51.0937 -0.00246647 0)
(51.1 -0.000788528 0)
(51.1065 0.00193984 0)
(51.1135 0.00619677 0)
(51.1206 0.0121036 0)
(51.1277 0.0202035 0)
(51.134 0.0307124 0)
(51.139 0.0439518 0)
(51.1413 0.0597911 0)
(51.1399 0.0777226 0)
(51.1336 0.0964967 0)
(51.1216 0.114304 0)
(51.1041 0.128829 0)
(51.0823 0.137852 0)
(51.0585 0.13981 0)
(51.0357 0.134417 0)
(51.0164 0.122744 0)
(51.0024 0.106848 0)
(50.9941 0.0890739 0)
(50.9909 0.071448 0)
(50.9918 0.0553191 0)
(50.9955 0.0413569 0)
(51.0009 0.0297035 0)
(51.0072 0.0202024 0)
(51.0139 0.0125631 0)
(51.0205 0.00649919 0)
(51.0269 0.00175169 0)
(51.0329 -0.00189802 0)
(51.0384 -0.0046602 0)
(51.0435 -0.00673711 0)
(51.048 -0.00834324 0)
(51.0521 -0.00966463 0)
(51.056 -0.0108377 0)
(51.0599 -0.0118654 0)
(51.0639 -0.0126665 0)
(51.0681 -0.0130299 0)
(51.0721 -0.0132295 0)
(51.0034 -0.0118216 0)
(50.7808 -0.0119208 0)
(50.4261 -0.00728336 0)
(51.0601 -0.00142982 0)
(51.065 -0.000955465 0)
(51.0689 -0.00272988 0)
(51.0764 -0.00277859 0)
(51.0822 -0.00323787 0)
(51.088 -0.00323332 0)
(51.0937 -0.00267448 0)
(51.1001 -0.00113018 0)
(51.1068 0.00140912 0)
(51.1139 0.0054638 0)
(51.1214 0.0111527 0)
(51.1289 0.0190304 0)
(51.1359 0.0293518 0)
(51.1418 0.0425154 0)
(51.1454 0.0585132 0)
(51.1455 0.0770251 0)
(51.1409 0.0970029 0)
(51.1304 0.116787 0)
(51.1139 0.13407 0)
(51.0921 0.146401 0)
(51.0671 0.151733 0)
(51.0418 0.149158 0)
(51.0193 0.139223 0)
(51.0017 0.123756 0)
(50.9902 0.105214 0)
(50.9846 0.0859806 0)
(50.9839 0.0678288 0)
(50.9867 0.0517837 0)
(50.9919 0.0382165 0)
(50.9984 0.0270729 0)
(51.0055 0.0180737 0)
(51.0127 0.0108824 0)
(51.0196 0.00519056 0)
(51.0262 0.000746553 0)
(51.0324 -0.00266358 0)
(51.0381 -0.0052341 0)
(51.0432 -0.00716335 0)
(51.0479 -0.00865703 0)
(51.0522 -0.00990082 0)
(51.0563 -0.0110194 0)
(51.0604 -0.012015 0)
(51.0648 -0.0127835 0)
(51.0693 -0.0131443 0)
(51.0419 -0.0130733 0)
(50.8431 -0.0106197 0)
(50.5567 -0.010312 0)
(50.1802 -0.00629332 0)
(51.0601 -0.000961943 0)
(51.065 -0.00126023 0)
(51.0689 -0.0033162 0)
(51.0763 -0.00330739 0)
(51.0822 -0.00353619 0)
(51.088 -0.00345472 0)
(51.0938 -0.00286718 0)
(51.1002 -0.00142917 0)
(51.107 0.000932319 0)
(51.1143 0.00478569 0)
(51.122 0.0102493 0)
(51.13 0.0178839 0)
(51.1376 0.0279835 0)
(51.1444 0.0410117 0)
(51.1492 0.0570674 0)
(51.1508 0.0760055 0)
(51.1479 0.0969855 0)
(51.1391 0.118533 0)
(51.1239 0.138425 0)
(51.1026 0.154077 0)
(51.0769 0.163042 0)
(51.0495 0.163793 0)
(51.0238 0.156248 0)
(51.0025 0.14184 0)
(50.9874 0.122992 0)
(50.9788 0.102369 0)
(50.976 0.082187 0)
(50.9776 0.0638937 0)
(50.9823 0.0481676 0)
(50.9888 0.0351258 0)
(50.9963 0.0245437 0)
(51.004 0.0160651 0)
(51.0115 0.00931291 0)
(51.0188 0.0039798 0)
(51.0256 -0.000181787 0)
(51.032 -0.0033661 0)
(51.0378 -0.00576018 0)
(51.0431 -0.00755107 0)
(51.048 -0.00894353 0)
(51.0525 -0.0101141 0)
(51.0568 -0.0111878 0)
(51.0612 -0.0121459 0)
(51.066 -0.0128993 0)
(51.06 -0.0131945 0)
(50.9131 -0.0120412 0)
(50.6277 -0.00923973 0)
(50.3107 -0.00879074 0)
(49.9311 -0.00541307 0)
(51.06 -0.000562535 0)
(51.065 -0.00153023 0)
(51.0689 -0.00394101 0)
(51.0763 -0.00387288 0)
(51.0822 -0.00380327 0)
(51.088 -0.00366832 0)
(51.0938 -0.00304782 0)
(51.1003 -0.00169212 0)
(51.1072 0.000509842 0)
(51.1147 0.00416827 0)
(51.1226 0.00940462 0)
(51.1309 0.0167809 0)
(51.1391 0.0266288 0)
(51.1467 0.0394677 0)
(51.1527 0.0554919 0)
(51.1558 0.0747145 0)
(51.1546 0.0965023 0)
(51.1477 0.119588 0)
(51.1341 0.141892 0)
(51.1138 0.160794 0)
(51.0878 0.17355 0)
(51.0588 0.178059 0)
(51.0301 0.173548 0)
(51.005 0.160899 0)
(50.9859 0.142327 0)
(50.9738 0.120667 0)
(50.9682 0.0985489 0)
(50.9682 0.0778972 0)
(50.972 0.0597787 0)
(50.9784 0.0445585 0)
(50.9861 0.0321272 0)
(50.9944 0.022142 0)
(51.0026 0.0141823 0)
(51.0105 0.00785733 0)
(51.018 0.00286019 0)
(51.0251 -0.00103547 0)
(51.0317 -0.00401117 0)
(51.0377 -0.00623992 0)
(51.0432 -0.00790523 0)
(51.0483 -0.00920271 0)
(51.053 -0.0103108 0)
(51.0576 -0.0113357 0)
(51.0624 -0.0122729 0)
(51.0653 -0.0130169 0)
(50.9716 -0.0125621 0)
(50.7102 -0.0105084 0)
(50.3832 -0.00792497 0)
(50.057 -0.00743032 0)
(49.6857 -0.0046507 0)
(51.0599 -0.000370744 0)
(51.0649 -0.00175986 0)
(51.0689 -0.00445087 0)
(51.0763 -0.00440165 0)
(51.0822 -0.0039742 0)
(51.088 -0.0038457 0)
(51.0939 -0.00321338 0)
(51.1004 -0.0019238 0)
(51.1074 0.000139752 0)
(51.115 0.00361279 0)
(51.1231 0.00862546 0)
(51.1318 0.0157355 0)
(51.1405 0.0253088 0)
(51.1489 0.0379111 0)
(51.1559 0.0538241 0)
(51.1604 0.0732027 0)
(51.161 0.0956138 0)
(51.156 0.120009 0)
(51.1443 0.144497 0)
(51.1253 0.166508 0)
(51.0997 0.183107 0)
(51.0695 0.191707 0)
(51.0382 0.190827 0)
(51.0093 0.180677 0)
(50.986 0.163075 0)
(50.9698 0.140866 0)
(50.961 0.117034 0)
(50.9587 0.0939964 0)
(50.9612 0.0732866 0)
(50.9671 0.055602 0)
(50.975 0.0410184 0)
(50.9838 0.0292578 0)
(50.9928 0.0198794 0)
(51.0014 0.012431 0)
(51.0097 0.00650981 0)
(51.0174 0.00182929 0)
(51.0247 -0.00182037 0)
(51.0315 -0.00460072 0)
(51.0377 -0.0066786 0)
(51.0435 -0.00822666 0)
(51.0488 -0.00944096 0)
(51.0538 -0.0104847 0)
(51.0587 -0.0114789 0)
(51.0638 -0.0124032 0)
(51.0174 -0.0127516 0)
(50.7866 -0.0110533 0)
(50.4686 -0.00902282 0)
(50.1271 -0.00674192 0)
(49.8045 -0.00625334 0)
(49.4485 -0.00400075 0)
(51.0601 -0.000536442 0)
(51.0648 -0.00197821 0)
(51.0687 -0.00473521 0)
(51.0763 -0.00477154 0)
(51.0822 -0.00401073 0)
(51.088 -0.00396093 0)
(51.0939 -0.00335975 0)
(51.1005 -0.00213053 0)
(51.1075 -0.000181688 0)
(51.1153 0.00311626 0)