/*--------------------------------*- C++ -*----------------------------------*\
  =========                 |
  \\      /  F ield         | OpenFOAM: The Open Source CFD Toolbox
   \\    /   O peration     | Website:  https://openfoam.org
    \\  /    A nd           | Version:  dev
     \\/     M anipulation  |
\*---------------------------------------------------------------------------*/
FoamFile
{
    version     2.0;
    format      ascii;
    class       volScalarField;
    location    "450";
    object      yPlus;
}
// * * * * * * * * * * * * * * * * * * * * * * * * * * * * * * * * * * * * * //

dimensions      [0 0 0 0 0 0 0];

internalField   uniform 0;

boundaryField
{
    inlet-l
    {
        type            calculated;
        value           uniform 0;
    }
    airfoil-l1
    {
        type            calculated;
        value           nonuniform List<scalar> 
71
(
191.52
214.784
249.876
283.691
310.268
327.674
337.99
343.169
344.703
343.725
340.926
337.064
331.705
325.289
318.211
310.742
303.05
295.242
287.375
279.527
271.763
264.1
256.571
249.204
242.025
235.06
228.33
221.849
215.662
209.8
204.299
199.2
194.549
190.385
186.767
183.729
181.294
179.45
178.158
177.371
176.97
176.877
177.054
177.354
177.768
178.138
178.509
178.758
178.885
178.842
178.646
178.208
177.503
176.599
175.454
174.039
172.436
170.593
168.581
166.371
164.048
161.582
159.021
156.391
153.697
150.99
148.271
145.588
142.923
140.416
137.787
)
;
    }
    empty-1
    {
        type            empty;
    }
    empty-2
    {
        type            empty;
    }
    wall-l1
    {
        type            calculated;
        value           nonuniform List<scalar> 
104
(
31.7411
8.47186
19.1366
11.9025
16.5314
15.2765
7.60266
13.9819
14.372
14.4946
13.5733
11.1759
12.3668
12.8891
12.4595
12.6848
12.184
12.6879
13.433
13.6188
13.5959
13.1186
12.6971
12.6595
12.6628
12.6818
12.7456
12.8041
12.8989
13.0426
13.1762
13.2835
13.2948
13.1621
12.9808
12.9133
13.0277
13.2039
13.2567
13.1542
13.0247
12.9733
12.9834
13.01
13.056
13.0985
13.0694
13.0539
13.3373
13.9978
14.6933
15.0524
14.9539
14.518
13.9853
13.5692
13.3404
13.2538
13.2354
13.2411
13.2581
13.306
13.4599
13.7993
14.2895
14.7384
14.9107
14.6755
14.1148
13.5607
13.3931
13.5738
13.7293
13.6413
13.4094
13.2889
13.3896
13.576
13.6841
13.6775
13.6133
13.5536
13.5235
13.5217
13.5377
13.5604
13.5821
13.6032
13.6293
13.6674
13.7165
13.7677
13.8035
13.8122
13.7934
13.7612
13.7311
13.7124
13.7036
13.692
13.6633
13.6147
13.5467
13.5452
)
;
    }
    airfoil-l2
    {
        type            calculated;
        value           nonuniform List<scalar> 
104
(
137.434
139.804
141.652
142.985
143.953
144.638
145.1
145.382
145.532
145.578
145.505
145.331
145.09
144.804
144.482
144.13
143.749
143.366
142.961
142.542
142.119
141.692
141.259
140.816
140.37
139.923
139.472
139.018
138.562
138.101
137.633
137.175
136.722
136.26
135.792
135.329
134.867
134.407
133.947
133.483
133.017
132.551
132.084
131.62
131.158
130.694
130.228
129.76
129.294
128.828
128.359
127.888
127.417
126.948
126.475
126.001
125.521
125.042
124.562
124.079
123.589
123.1
122.611
122.11
121.608
121.1
120.587
120.066
119.543
119.019
118.486
117.937
117.385
116.827
116.247
115.671
115.083
114.474
113.856
113.221
112.571
111.895
111.212
110.501
109.763
109.001
108.213
107.387
106.514
105.611
104.661
103.654
102.584
101.443
100.219
98.8936
97.4485
95.8605
94.0947
92.0775
89.7642
86.876
83.6047
77.3113
)
;
    }
    empty-3
    {
        type            empty;
    }
    empty-4
    {
        type            empty;
    }
    wall-l2
    {
        type            calculated;
        value           nonuniform List<scalar> 
51
(
13.5782
13.3777
13.499
13.6272
13.6593
13.759
13.7877
13.811
13.773
13.6898
13.6766
13.6786
13.7407
13.834
13.9512
14.1452
14.4051
14.6933
14.9259
14.9966
14.8525
14.4965
13.9963
13.4726
13.0569
12.838
12.8162
12.9048
12.9842
12.9487
12.7437
12.3948
12.0173
11.7741
11.7825
12.0763
12.6605
13.4906
14.3857
15.0563
15.2281
14.7498
13.6955
12.5314
12.0252
12.0829
11.767
10.4988
8.96178
9.35063
11.2507
)
;
    }
    outlet-l
    {
        type            calculated;
        value           uniform 0;
    }
    empty-5
    {
        type            empty;
    }
    empty-6
    {
        type            empty;
    }
    outlet-h
    {
        type            calculated;
        value           uniform 0;
    }
    wall-h2
    {
        type            calculated;
        value           nonuniform List<scalar> 
51
(
13.1319
13.0608
13.1009
13.1398
13.1224
13.1292
13.1235
13.1403
13.1587
13.1619
13.1801
13.1843
13.1888
13.196
13.2034
13.2199
13.2375
13.2525
13.2677
13.2811
13.3009
13.322
13.3468
13.3768
13.4119
13.4494
13.485
13.5125
13.528
13.5322
13.5303
13.5299
13.5389
13.5612
13.5954
13.634
13.6671
13.6871
13.693
13.6892
13.6796
13.6614
13.6222
13.5469
13.4281
13.2769
13.1232
13.008
12.9338
12.9438
12.8001
)
;
    }
    empty-7
    {
        type            empty;
    }
    empty-8
    {
        type            empty;
    }
    airfoil-h2
    {
        type            calculated;
        value           nonuniform List<scalar> 
104
(
136.088
138.423
140.256
141.589
142.564
143.271
143.76
144.078
144.263
144.354
144.346
144.246
144.078
143.855
143.587
143.294
142.971
142.641
142.286
141.926
141.556
141.174
140.784
140.392
139.991
139.577
139.168
138.753
138.33
137.909
137.482
137.047
136.611
136.184
135.751
135.311
134.865
134.416
133.973
133.524
133.079
132.626
132.173
131.718
131.265
130.812
130.352
129.89
129.428
128.96
128.502
128.028
127.558
127.091
126.617
126.141
125.667
125.188
124.699
124.217
123.724
123.237
122.737
122.237
121.732
121.226
120.714
120.192
119.668
119.138
118.593
118.051
117.497
116.935
116.365
115.78
115.191
114.582
113.963
113.327
112.67
112.003
111.316
110.602
109.867
109.109
108.317
107.491
106.627
105.72
104.764
103.751
102.674
101.53
100.3
98.9723
97.5223
95.922
94.1354
92.1008
89.7736
86.8724
83.5929
77.258
)
;
    }
    wall-h1
    {
        type            calculated;
        value           nonuniform List<scalar> 
104
(
26.8615
13.3221
10.216
4.2693
14.3767
14.698
10.0895
12.6362
12.9696
12.8563
12.805
11.8638
12.1955
12.5004
12.3305
12.4326
12.2923
12.3985
12.5333
12.5053
12.5641
12.5419
12.5287
12.5766
12.5932
12.6162
12.65
12.6666
12.6832
12.7027
12.7121
12.7234
12.7363
12.7455
12.7572
12.7701
12.7849
12.8067
12.8301
12.8462
12.8517
12.8484
12.8485
12.8555
12.8654
12.8741
12.8817
12.8891
12.8979
12.9103
12.9257
12.9389
12.9416
12.9326
12.9207
12.9148
12.9173
12.9239
12.9295
12.9336
12.9358
12.9383
12.9412
12.9448
12.9484
12.9511
12.9541
12.9571
12.96
12.964
12.9688
12.9738
12.9785
12.9834
12.9883
12.9933
12.9979
13.0031
13.009
13.0145
13.0184
13.0205
13.0212
13.0206
13.0203
13.0215
13.0241
13.0276
13.0307
13.0343
13.0373
13.0414
13.0449
13.0489
13.0521
13.0556
13.0579
13.0596
13.0611
13.0628
13.066
13.0688
13.0682
13.082
)
;
    }
    empty-9
    {
        type            empty;
    }
    empty-10
    {
        type            empty;
    }
    inlet-h
    {
        type            calculated;
        value           uniform 0;
    }
    airfoil-h1
    {
        type            calculated;
        value           nonuniform List<scalar> 
71
(
189.666
210.097
244.614
279.172
307.521
326.909
338.974
345.544
348.119
347.866
345.56
341.92
336.845
330.512
323.37
315.728
307.783
299.664
291.432
283.194
275.005
266.893
258.907
251.077
243.411
235.96
228.741
221.794
215.137
208.805
202.848
197.316
192.253
187.705
183.742
180.389
177.682
175.631
174.186
173.282
172.833
172.728
172.9
173.255
173.758
174.233
174.685
175.046
175.299
175.417
175.33
175.07
174.551
173.799
172.793
171.519
170.038
168.334
166.408
164.317
162.064
159.683
157.197
154.637
152.016
149.35
146.705
144.066
141.467
139.027
136.451
)
;
    }
    empty-11
    {
        type            empty;
    }
    empty-12
    {
        type            empty;
    }
}


// ************************************************************************* //
