/*--------------------------------*- C++ -*----------------------------------*\
  =========                 |
  \\      /  F ield         | OpenFOAM: The Open Source CFD Toolbox
   \\    /   O peration     | Website:  https://openfoam.org
    \\  /    A nd           | Version:  dev
     \\/     M anipulation  |
\*---------------------------------------------------------------------------*/
FoamFile
{
    version     2.0;
    format      ascii;
    class       volScalarField;
    location    "100";
    object      nut;
}
// * * * * * * * * * * * * * * * * * * * * * * * * * * * * * * * * * * * * * //

dimensions      [0 2 -1 0 0 0 0];

internalField   nonuniform List<scalar> 
29380
(
9.12269e-06
9.12088e-06
9.11134e-06
9.11993e-06
9.11048e-06
9.11113e-06
9.11878e-06
9.10992e-06
9.11005e-06
9.10761e-06
9.11751e-06
9.10936e-06
9.10946e-06
9.10727e-06
9.10556e-06
9.11621e-06
9.10884e-06
9.10885e-06
9.10707e-06
9.10523e-06
9.10589e-06
9.11507e-06
9.10837e-06
9.10829e-06
9.10683e-06
9.10508e-06
9.10498e-06
9.10672e-06
9.11419e-06
9.10795e-06
9.10777e-06
9.10658e-06
9.10492e-06
9.10465e-06
9.10584e-06
9.10969e-06
9.1135e-06
9.10755e-06
9.10731e-06
9.10634e-06
9.10477e-06
9.10426e-06
9.10545e-06
9.10841e-06
9.11168e-06
9.11282e-06
9.10716e-06
9.10689e-06
9.1061e-06
9.10463e-06
9.10401e-06
9.105e-06
9.1078e-06
9.11025e-06
9.11544e-06
9.11202e-06
9.10679e-06
9.10649e-06
9.10585e-06
9.10449e-06
9.10387e-06
9.10463e-06
9.10713e-06
9.1095e-06
9.11361e-06
9.11942e-06
9.1111e-06
9.10646e-06
9.10608e-06
9.10557e-06
9.10435e-06
9.1038e-06
9.10432e-06
9.10657e-06
9.10868e-06
9.11263e-06
9.11718e-06
9.12509e-06
9.11021e-06
9.10619e-06
9.10567e-06
9.10526e-06
9.10419e-06
9.10373e-06
9.10407e-06
9.10609e-06
9.10797e-06
9.11155e-06
9.11595e-06
9.12224e-06
9.13169e-06
9.10952e-06
9.106e-06
9.10534e-06
9.10494e-06
9.10399e-06
9.10362e-06
9.10384e-06
9.10569e-06
9.10736e-06
9.11059e-06
9.11459e-06
9.12066e-06
9.12814e-06
9.14005e-06
9.10909e-06
9.10586e-06
9.10513e-06
9.10468e-06
9.10378e-06
9.10347e-06
9.1036e-06
9.10534e-06
9.10687e-06
9.10975e-06
9.11337e-06
9.11891e-06
9.12615e-06
9.13555e-06
9.15026e-06
9.10884e-06
9.10573e-06
9.10504e-06
9.10451e-06
9.10359e-06
9.10333e-06
9.10335e-06
9.105e-06
9.10645e-06
9.10905e-06
9.1123e-06
9.11732e-06
9.12394e-06
9.1331e-06
9.14448e-06
9.16296e-06
9.10855e-06
9.10557e-06
9.10501e-06
9.10443e-06
9.10349e-06
9.10325e-06
9.1031e-06
9.10463e-06
9.10605e-06
9.10846e-06
9.1114e-06
9.11589e-06
9.1219e-06
9.13031e-06
9.14137e-06
9.15564e-06
9.17862e-06
9.10813e-06
9.10535e-06
9.10493e-06
9.10439e-06
9.10348e-06
9.10323e-06
9.1029e-06
9.10425e-06
9.10561e-06
9.1079e-06
9.11065e-06
9.1147e-06
9.1201e-06
9.1277e-06
9.13784e-06
9.1517e-06
9.16945e-06
9.19769e-06
9.10759e-06
9.1051e-06
9.10475e-06
9.10433e-06
9.10353e-06
9.10325e-06
9.10281e-06
9.10391e-06
9.10515e-06
9.10732e-06
9.10994e-06
9.11371e-06
9.1186e-06
9.12535e-06
9.13457e-06
9.14718e-06
9.16455e-06
9.18618e-06
9.22137e-06
9.1071e-06
9.10487e-06
9.1045e-06
9.10422e-06
9.10355e-06
9.10328e-06
9.10281e-06
9.10367e-06
9.10472e-06
9.1067e-06
9.10921e-06
9.11281e-06
9.11736e-06
9.1234e-06
9.13163e-06
9.143e-06
9.15881e-06
9.1803e-06
9.20713e-06
9.24968e-06
9.10679e-06
9.1047e-06
9.10425e-06
9.10408e-06
9.10348e-06
9.10326e-06
9.10285e-06
9.10353e-06
9.1044e-06
9.10612e-06
9.10842e-06
9.11186e-06
9.11623e-06
9.12184e-06
9.12918e-06
9.13925e-06
9.15346e-06
9.17317e-06
9.19953e-06
9.23156e-06
9.28539e-06
9.10663e-06
9.10458e-06
9.1041e-06
9.10395e-06
9.10334e-06
9.10319e-06
9.10288e-06
9.10344e-06
9.10419e-06
9.10566e-06
9.10766e-06
9.11085e-06
9.11503e-06
9.12044e-06
9.12719e-06
9.13619e-06
9.1486e-06
9.16639e-06
9.19037e-06
9.22246e-06
9.26272e-06
9.32822e-06
9.1065e-06
9.1045e-06
9.10407e-06
9.10389e-06
9.10323e-06
9.10308e-06
9.10285e-06
9.10333e-06
9.10406e-06
9.10535e-06
9.10703e-06
9.10984e-06
9.11371e-06
9.11895e-06
9.12543e-06
9.13376e-06
9.14464e-06
9.16016e-06
9.1818e-06
9.21123e-06
9.25086e-06
9.30015e-06
9.37888e-06
9.1063e-06
9.1044e-06
9.10412e-06
9.1039e-06
9.10319e-06
9.10299e-06
9.10278e-06
9.10317e-06
9.10392e-06
9.10513e-06
9.10658e-06
9.109e-06
9.11239e-06
9.11728e-06
9.12359e-06
9.13163e-06
9.14161e-06
9.15509e-06
9.174e-06
9.20051e-06
9.23605e-06
9.28545e-06
9.34438e-06
9.43801e-06
9.10601e-06
9.10428e-06
9.10415e-06
9.10392e-06
9.10325e-06
9.10296e-06
9.10272e-06
9.10298e-06
9.10372e-06
9.10491e-06
9.10626e-06
9.1084e-06
9.11128e-06
9.11557e-06
9.12153e-06
9.12939e-06
9.1391e-06
9.15127e-06
9.16765e-06
9.19056e-06
9.22196e-06
9.26662e-06
9.32647e-06
9.39592e-06
9.5061e-06
9.10573e-06
9.10412e-06
9.1041e-06
9.10392e-06
9.10334e-06
9.103e-06
9.10272e-06
9.10283e-06
9.10349e-06
9.10463e-06
9.10597e-06
9.10797e-06
9.11048e-06
9.1141e-06
9.11941e-06
9.12685e-06
9.13651e-06
9.1482e-06
9.16288e-06
9.18246e-06
9.20919e-06
9.24834e-06
9.30301e-06
9.3744e-06
9.45509e-06
9.58329e-06
9.10553e-06
9.10398e-06
9.10397e-06
9.10385e-06
9.10339e-06
9.10307e-06
9.10277e-06
9.10276e-06
9.10327e-06
9.1043e-06
9.10562e-06
9.10757e-06
9.10993e-06
9.11305e-06
9.11755e-06
9.12418e-06
9.13347e-06
9.1451e-06
9.1591e-06
9.17651e-06
9.19918e-06
9.23149e-06
9.27977e-06
9.34562e-06
9.42937e-06
9.52184e-06
9.66955e-06
9.10539e-06
9.10388e-06
9.10385e-06
9.10376e-06
9.10336e-06
9.10313e-06
9.10284e-06
9.10278e-06
9.10311e-06
9.10399e-06
9.10521e-06
9.10708e-06
9.10943e-06
9.11233e-06
9.11617e-06
9.12178e-06
9.13014e-06
9.14142e-06
9.15536e-06
9.17204e-06
9.19224e-06
9.21831e-06
9.25798e-06
9.3165e-06
9.39441e-06
9.49136e-06
9.59624e-06
9.76448e-06
9.10526e-06
9.10381e-06
9.10378e-06
9.10367e-06
9.10329e-06
9.10314e-06
9.1029e-06
9.10282e-06
9.10304e-06
9.10377e-06
9.10482e-06
9.10652e-06
9.10882e-06
9.1117e-06
9.11519e-06
9.11994e-06
9.12702e-06
9.13731e-06
9.15096e-06
9.1677e-06
9.18729e-06
9.20959e-06
9.24083e-06
9.28856e-06
9.35843e-06
9.44955e-06
9.56041e-06
9.67796e-06
9.86746e-06
9.10514e-06
9.10377e-06
9.10377e-06
9.10362e-06
9.10322e-06
9.10312e-06
9.10292e-06
9.10284e-06
9.10301e-06
9.10364e-06
9.10451e-06
9.10597e-06
9.10811e-06
9.11095e-06
9.11434e-06
9.1186e-06
9.12452e-06
9.13337e-06
9.14597e-06
9.16248e-06
9.18245e-06
9.20416e-06
9.22977e-06
9.26629e-06
9.32328e-06
9.406e-06
9.51088e-06
9.63624e-06
9.76649e-06
9.97745e-06
9.10505e-06
9.10371e-06
9.1038e-06
9.10362e-06
9.10322e-06
9.1031e-06
9.10291e-06
9.10282e-06
9.10299e-06
9.10356e-06
9.1043e-06
9.10554e-06
9.10739e-06
9.11005e-06
9.11339e-06
9.11748e-06
9.12268e-06
9.13013e-06
9.14106e-06
9.15639e-06
9.17631e-06
9.19938e-06
9.22358e-06
9.25215e-06
9.29488e-06
9.36264e-06
9.45872e-06
9.57816e-06
9.71834e-06
9.86091e-06
1.0093e-05
9.10501e-06
9.10364e-06
9.10381e-06
9.10363e-06
9.10326e-06
9.10312e-06
9.1029e-06
9.10277e-06
9.10294e-06
9.10348e-06
9.10415e-06
9.10524e-06
9.1068e-06
9.10914e-06
9.11232e-06
9.11633e-06
9.12121e-06
9.12767e-06
9.13689e-06
9.15024e-06
9.16883e-06
9.19291e-06
9.21881e-06
9.24504e-06
9.27692e-06
9.32687e-06
9.40587e-06
9.5163e-06
9.65089e-06
9.80578e-06
9.96025e-06
1.02117e-05
9.10504e-06
9.10357e-06
9.1038e-06
9.10364e-06
9.10331e-06
9.10317e-06
9.10293e-06
9.10274e-06
9.10289e-06
9.10337e-06
9.10402e-06
9.10501e-06
9.10636e-06
9.10835e-06
9.11124e-06
9.11508e-06
9.1198e-06
9.12569e-06
9.13361e-06
9.14489e-06
9.16109e-06
9.18418e-06
9.21201e-06
9.24053e-06
9.26855e-06
9.3039e-06
9.36147e-06
9.45265e-06
9.57832e-06
9.72828e-06
9.89781e-06
1.00627e-05
1.03305e-05
9.10511e-06
9.10352e-06
9.10377e-06
9.10363e-06
9.10335e-06
9.10322e-06
9.10299e-06
9.10277e-06
9.10285e-06
9.10324e-06
9.10387e-06
9.1048e-06
9.10601e-06
9.10773e-06
9.11026e-06
9.11382e-06
9.11836e-06
9.1239e-06
9.13094e-06
9.14057e-06
9.15421e-06
9.17436e-06
9.20188e-06
9.23371e-06
9.26431e-06
9.29352e-06
9.33257e-06
9.39834e-06
9.50263e-06
9.64431e-06
9.80966e-06
9.99295e-06
1.01659e-05
1.0446e-05
9.10519e-06
9.10351e-06
9.10375e-06
9.10361e-06
9.10336e-06
9.10326e-06
9.10307e-06
9.10285e-06
9.10284e-06
9.10313e-06
9.10372e-06
9.10459e-06
9.10569e-06
9.10722e-06
9.1094e-06
9.11262e-06
9.11693e-06
9.12221e-06
9.12864e-06
9.13705e-06
9.14857e-06
9.16511e-06
9.18965e-06
9.22226e-06
9.25764e-06
9.28944e-06
9.31983e-06
9.36262e-06
9.43721e-06
9.55577e-06
9.71349e-06
9.8938e-06
1.00892e-05
1.02666e-05
1.05553e-05
9.10528e-06
9.10353e-06
9.10375e-06
9.10359e-06
9.10337e-06
9.10328e-06
9.10313e-06
9.10296e-06
9.10287e-06
9.10307e-06
9.10358e-06
9.10439e-06
9.1054e-06
9.10676e-06
9.10863e-06
9.11146e-06
9.1155e-06
9.12061e-06
9.12666e-06
9.13412e-06
9.14398e-06
9.15741e-06
9.17756e-06
9.20732e-06
9.24495e-06
9.28329e-06
9.31615e-06
9.34727e-06
9.39384e-06
9.4783e-06
9.61113e-06
9.78482e-06
9.97903e-06
1.01838e-05
1.03615e-05
1.06591e-05
9.10536e-06
9.10356e-06
9.10377e-06
9.10359e-06
9.10338e-06
9.1033e-06
9.10317e-06
9.10304e-06
9.10292e-06
9.10306e-06
9.10346e-06
9.10422e-06
9.10516e-06
9.10637e-06
9.10794e-06
9.11033e-06
9.11399e-06
9.11898e-06
9.12493e-06
9.1318e-06
9.14032e-06
9.1514e-06
9.16731e-06
9.19184e-06
9.22715e-06
9.26982e-06
9.31104e-06
9.3443e-06
9.37567e-06
9.42639e-06
9.5207e-06
9.66789e-06
9.857e-06
1.00633e-05
1.0274e-05
1.04493e-05
1.07648e-05
9.10542e-06
9.10359e-06
9.1038e-06
9.10359e-06
9.10341e-06
9.10332e-06
9.10319e-06
9.10309e-06
9.10298e-06
9.10306e-06
9.10337e-06
9.10406e-06
9.10495e-06
9.10608e-06
9.10741e-06
9.10933e-06
9.11239e-06
9.11708e-06
9.12313e-06
9.12997e-06
9.13767e-06
9.14703e-06
9.15954e-06
9.17841e-06
9.20787e-06
9.24933e-06
9.29713e-06
9.3407e-06
9.37371e-06
9.40483e-06
9.45964e-06
9.56384e-06
9.72509e-06
9.92841e-06
1.01439e-05
1.03575e-05
1.05335e-05
1.08912e-05
9.10545e-06
9.10361e-06
9.10385e-06
9.10361e-06
9.10345e-06
9.10336e-06
9.10322e-06
9.10312e-06
9.10303e-06
9.10306e-06
9.1033e-06
9.10389e-06
9.10475e-06
9.10585e-06
9.10708e-06
9.10861e-06
9.11093e-06
9.1149e-06
9.12082e-06
9.12805e-06
9.13581e-06
9.14426e-06
9.15434e-06
9.16833e-06
9.19071e-06
9.22601e-06
9.27384e-06
9.32663e-06
9.37213e-06
9.40382e-06
9.43455e-06
9.49331e-06
9.60713e-06
9.78143e-06
9.99678e-06
1.02184e-05
1.04364e-05
1.06277e-05
1.10838e-05
9.10544e-06
9.10361e-06
9.10391e-06
9.10362e-06
9.1035e-06
9.10341e-06
9.10326e-06
9.10315e-06
9.10308e-06
9.10307e-06
9.10325e-06
9.10371e-06
9.1045e-06
9.10561e-06
9.10687e-06
9.10825e-06
9.10993e-06
9.11283e-06
9.11792e-06
9.12527e-06
9.1338e-06
9.14254e-06
9.15152e-06
9.16202e-06
9.17783e-06
9.2046e-06
9.24594e-06
9.30042e-06
9.35818e-06
9.40467e-06
9.43482e-06
9.46475e-06
9.52711e-06
9.64945e-06
9.83512e-06
1.00598e-05
1.02873e-05
1.05208e-05
1.077e-05
1.13899e-05
9.10543e-06
9.1036e-06
9.10398e-06
9.10363e-06
9.10354e-06
9.10345e-06
9.10332e-06
9.10321e-06
9.10314e-06
9.10308e-06
9.10324e-06
9.10356e-06
9.10422e-06
9.10527e-06
9.10661e-06
9.10808e-06
9.10953e-06
9.11142e-06
9.11504e-06
9.12149e-06
9.13049e-06
9.14049e-06
9.15011e-06
9.15919e-06
9.17013e-06
9.18836e-06
9.21958e-06
9.26751e-06
9.32889e-06
9.39133e-06
9.43858e-06
9.46664e-06
9.49532e-06
9.56009e-06
9.68945e-06
9.88406e-06
1.01168e-05
1.03577e-05
1.06443e-05
1.10042e-05
1.18441e-05
9.10542e-06
9.10358e-06
9.10404e-06
9.10364e-06
9.10358e-06
9.1035e-06
9.10339e-06
9.10328e-06
9.1032e-06
9.10312e-06
9.10325e-06
9.10349e-06
9.10398e-06
9.10485e-06
9.10616e-06
9.10781e-06
9.10947e-06
9.11094e-06
9.11309e-06
9.11758e-06
9.12563e-06
9.13654e-06
9.14811e-06
9.15834e-06
9.1673e-06
9.17884e-06
9.19943e-06
9.23567e-06
9.29047e-06
9.35916e-06
9.42614e-06
9.47367e-06
9.49918e-06
9.52562e-06
9.59127e-06
9.72535e-06
9.92701e-06
1.01724e-05
1.04584e-05
1.08451e-05
1.13676e-05
1.24781e-05
9.10543e-06
9.10358e-06
9.10407e-06
9.10366e-06
9.10361e-06
9.10353e-06
9.10344e-06
9.10335e-06
9.10327e-06
9.10319e-06
9.10326e-06
9.10347e-06
9.10382e-06
9.10448e-06
9.10558e-06
9.10725e-06
9.10926e-06
9.11103e-06
9.11249e-06
9.11492e-06
9.12047e-06
9.13041e-06
9.14346e-06
9.15665e-06
9.16723e-06
9.1758e-06
9.18788e-06
9.21118e-06
9.25262e-06
9.31498e-06
9.39101e-06
9.46233e-06
9.50978e-06
9.5322e-06
9.55497e-06
9.61925e-06
9.75571e-06
9.96668e-06
1.0251e-05
1.06218e-05
1.11617e-05
1.1892e-05
1.33179e-05
9.10544e-06
9.10359e-06
9.10411e-06
9.10369e-06
9.10361e-06
9.10356e-06
9.10349e-06
9.10342e-06
9.10334e-06
9.10327e-06
9.10328e-06
9.10348e-06
9.10376e-06
9.10425e-06
9.10505e-06
9.10646e-06
9.10859e-06
9.11095e-06
9.11278e-06
9.1142e-06
9.11693e-06
9.12377e-06
9.13585e-06
9.15135e-06
9.16604e-06
9.17648e-06
9.1847e-06
9.19733e-06
9.22344e-06
9.27061e-06
9.34072e-06
9.42416e-06
9.49964e-06
9.54703e-06
9.56535e-06
9.58235e-06
9.64264e-06
9.78189e-06
1.00231e-05
1.038e-05
1.0886e-05
1.16258e-05
1.2604e-05
1.43782e-05
9.10546e-06
9.1036e-06
9.10416e-06
9.10372e-06
9.10361e-06
9.10357e-06
9.10353e-06
9.10347e-06
9.10341e-06
9.10335e-06
9.10332e-06
9.10348e-06
9.10375e-06
9.10416e-06
9.10473e-06
9.10572e-06
9.10754e-06
9.1102e-06
9.11291e-06
9.11478e-06
9.11605e-06
9.11921e-06
9.12751e-06
9.14206e-06
9.1601e-06
9.17592e-06
9.18633e-06
9.19391e-06
9.20721e-06
9.23632e-06
9.28946e-06
9.36752e-06
9.45837e-06
9.53837e-06
9.58532e-06
9.59793e-06
9.60654e-06
9.66194e-06
9.82001e-06
1.01204e-05
1.05926e-05
1.1283e-05
1.22649e-05
1.35193e-05
1.56688e-05
9.10551e-06
9.10362e-06
9.10421e-06
9.10376e-06
9.10362e-06
9.10358e-06
9.10355e-06
9.10351e-06
9.10347e-06
9.10342e-06
9.10338e-06
9.10347e-06
9.10372e-06
9.10411e-06
9.10461e-06
9.10528e-06
9.10653e-06
9.10886e-06
9.11208e-06
9.11518e-06
9.117e-06
9.11811e-06
9.12176e-06
9.13169e-06
9.14894e-06
9.16946e-06
9.18649e-06
9.19652e-06
9.20362e-06
9.21756e-06
9.24989e-06
9.30921e-06
9.3953e-06
9.4939e-06
9.5786e-06
9.62429e-06
9.62892e-06
9.62748e-06
9.68992e-06
9.89178e-06
1.02839e-05
1.09233e-05
1.18406e-05
1.30999e-05
1.46629e-05
1.72049e-05
9.10562e-06
9.10364e-06
9.10426e-06
9.10382e-06
9.10366e-06
9.10359e-06
9.10357e-06
9.10354e-06
9.10352e-06
9.10349e-06
9.10346e-06
9.10347e-06
9.10368e-06
9.10405e-06
9.10456e-06
9.10514e-06
9.10592e-06
9.1075e-06
9.1104e-06
9.11428e-06
9.11776e-06
9.11944e-06
9.12039e-06
9.12452e-06
9.13629e-06
9.15646e-06
9.17946e-06
9.19749e-06
9.20728e-06
9.2139e-06
9.22867e-06
9.2644e-06
9.32998e-06
9.42418e-06
9.53092e-06
9.62025e-06
9.66308e-06
9.65782e-06
9.65555e-06
9.74574e-06
1.00151e-05
1.05503e-05
1.14016e-05
1.25901e-05
1.41557e-05
1.60359e-05
1.89808e-05
9.10576e-06
9.10368e-06
9.1043e-06
9.10386e-06
9.10372e-06
9.10361e-06
9.10359e-06
9.10356e-06
9.10356e-06
9.10354e-06
9.10354e-06
9.10351e-06
9.10365e-06
9.10395e-06
9.10446e-06
9.10512e-06
9.10574e-06
9.10667e-06
9.10863e-06
9.11217e-06
9.11681e-06
9.12061e-06
9.12214e-06
9.12285e-06
9.12754e-06
9.14144e-06
9.16448e-06
9.18998e-06
9.20907e-06
9.21872e-06
9.22503e-06
9.24087e-06
9.28011e-06
9.3518e-06
9.4544e-06
9.56959e-06
9.66269e-06
9.70082e-06
9.69368e-06
9.70638e-06
9.84271e-06
1.02265e-05
1.09539e-05
1.20623e-05
1.35424e-05
1.54186e-05
1.76212e-05
2.10035e-05
9.1059e-06
9.10374e-06
9.10433e-06
9.1039e-06
9.10379e-06
9.10365e-06
9.10363e-06
9.10359e-06
9.10359e-06
9.10358e-06
9.1036e-06
9.10358e-06
9.10366e-06
9.10387e-06
9.10429e-06
9.105e-06
9.10573e-06
9.10643e-06
9.10752e-06
9.1099e-06
9.11422e-06
9.11962e-06
9.12378e-06
9.12512e-06
9.12556e-06
9.131e-06
9.14699e-06
9.17305e-06
9.20102e-06
9.22132e-06
9.23099e-06
9.23731e-06
9.25446e-06
9.29711e-06
9.37504e-06
9.48631e-06
9.60963e-06
9.7048e-06
9.74586e-06
9.74761e-06
9.79171e-06
1.00158e-05
1.05655e-05
1.15221e-05
1.29036e-05
1.46832e-05
1.68855e-05
1.94387e-05
2.33006e-05
9.10601e-06
9.1038e-06
9.10436e-06
9.10392e-06
9.10384e-06
9.1037e-06
9.10368e-06
9.10364e-06
9.10362e-06
9.10361e-06
9.10364e-06
9.10365e-06
9.10369e-06
9.10383e-06
9.10412e-06
9.10474e-06
9.10562e-06
9.10645e-06
9.10721e-06
9.10848e-06
9.11137e-06
9.11653e-06
9.12276e-06
9.12731e-06
9.12842e-06
9.12861e-06
9.13482e-06
9.15307e-06
9.18209e-06
9.21262e-06
9.23424e-06
9.24425e-06
9.25104e-06
9.26971e-06
9.31598e-06
9.40024e-06
9.52017e-06
9.6501e-06
9.75432e-06
9.80495e-06
9.83198e-06
9.94392e-06
1.03034e-05
1.1048e-05
1.22521e-05
1.39238e-05
1.60284e-05
1.85875e-05
2.15297e-05
2.59127e-05
9.1061e-06
9.10385e-06
9.10439e-06
9.10395e-06
9.10388e-06
9.10374e-06
9.10373e-06
9.1037e-06
9.10368e-06
9.10366e-06
9.10367e-06
9.1037e-06
9.10374e-06
9.10384e-06
9.10403e-06
9.10447e-06
9.1053e-06
9.10634e-06
9.10727e-06
9.1081e-06
9.10959e-06
9.11306e-06
9.11913e-06
9.12627e-06
9.13121e-06
9.13204e-06
9.13208e-06
9.13914e-06
9.15963e-06
9.19161e-06
9.22477e-06
9.24789e-06
9.25878e-06
9.2666e-06
9.28734e-06
9.33737e-06
9.42825e-06
9.55575e-06
9.69777e-06
9.81522e-06
9.89174e-06
9.97444e-06
1.01939e-05
1.07179e-05
1.16821e-05
1.31584e-05
1.51477e-05
1.7606e-05
2.05619e-05
2.39444e-05
2.8895e-05
9.10618e-06
9.1039e-06
9.10442e-06
9.10399e-06
9.10393e-06
9.10379e-06
9.10376e-06
9.10376e-06
9.10374e-06
9.10372e-06
9.10371e-06
9.10374e-06
9.10378e-06
9.10387e-06
9.10402e-06
9.10429e-06
9.10492e-06
9.10598e-06
9.10718e-06
9.10822e-06
9.10916e-06
9.11089e-06
9.11497e-06
9.12203e-06
9.13015e-06
9.13545e-06
9.13609e-06
9.13599e-06
9.14399e-06
9.16671e-06
9.20176e-06
9.23752e-06
9.26248e-06
9.27494e-06
9.28471e-06
9.30806e-06
9.36255e-06
9.45989e-06
9.5986e-06
9.75607e-06
9.90087e-06
1.00257e-05
1.01971e-05
1.05614e-05
1.12822e-05
1.24922e-05
1.42616e-05
1.65934e-05
1.94477e-05
2.28554e-05
2.67323e-05
3.28266e-05
9.10631e-06
9.10394e-06
9.10446e-06
9.10402e-06
9.10398e-06
9.10384e-06
9.10379e-06
9.1038e-06
9.10381e-06
9.10379e-06
9.10378e-06
9.10378e-06
9.10381e-06
9.10388e-06
9.10403e-06
9.10422e-06
9.10464e-06
9.10549e-06
9.10676e-06
9.10816e-06
9.10936e-06
9.11039e-06
9.11238e-06
9.11711e-06
9.12524e-06
9.13434e-06
9.14008e-06
9.14055e-06
9.14046e-06
9.14949e-06
9.17467e-06
9.21274e-06
9.25105e-06
9.27828e-06
9.29326e-06
9.30602e-06
9.33319e-06
9.39325e-06
9.49966e-06
9.65296e-06
9.83465e-06
1.00214e-05
1.02258e-05
1.05329e-05
1.10808e-05
1.20207e-05
1.34887e-05
1.55722e-05
1.82889e-05
2.15932e-05
2.55025e-05
3.01187e-05
4.68476e-05
9.10638e-06
9.10401e-06
9.10452e-06
9.10405e-06
9.10403e-06
9.1039e-06
9.10382e-06
9.10384e-06
9.10386e-06
9.10387e-06
9.10386e-06
9.10385e-06
9.10386e-06
9.10389e-06
9.10402e-06
9.1042e-06
9.10449e-06
9.10509e-06
9.10618e-06
9.10768e-06
9.10932e-06
9.11067e-06
9.1118e-06
9.11407e-06
9.11953e-06
9.12876e-06
9.13888e-06
9.14509e-06
9.14553e-06
9.14567e-06
9.15606e-06
9.18389e-06
9.22463e-06
9.26548e-06
9.29554e-06
9.31433e-06
9.33163e-06
9.36475e-06
9.43359e-06
9.55228e-06
9.72192e-06
9.93846e-06
1.01995e-05
1.05346e-05
1.10198e-05
1.17709e-05
1.29382e-05
1.4682e-05
1.7116e-05
2.02642e-05
2.40598e-05
2.86236e-05
3.88779e-05
0.000145883
9.10646e-06
9.10406e-06
9.10464e-06
9.10409e-06
9.10408e-06
9.10395e-06
9.10387e-06
9.10389e-06
9.10391e-06
9.10393e-06
9.10394e-06
9.10393e-06
9.10393e-06
9.10392e-06
9.104e-06
9.10417e-06
9.10443e-06
9.10485e-06
9.10569e-06
9.107e-06
9.10877e-06
9.11068e-06
9.11219e-06
9.11344e-06
9.11601e-06
9.12224e-06
9.13257e-06
9.14376e-06
9.1505e-06
9.15116e-06
9.15189e-06
9.16418e-06
9.1944e-06
9.23754e-06
9.28088e-06
9.31486e-06
9.33893e-06
9.36309e-06
9.40729e-06
9.48723e-06
9.6148e-06
9.81257e-06
1.00958e-05
1.04786e-05
1.0987e-05
1.16734e-05
1.26396e-05
1.40499e-05
1.60938e-05
1.89104e-05
2.25181e-05
2.68885e-05
3.53814e-05
0.000110243
0.000347304
9.10653e-06
9.10412e-06
9.10474e-06
9.10417e-06
9.10412e-06
9.104e-06
9.10392e-06
9.10393e-06
9.10396e-06
9.10399e-06
9.10402e-06
9.10403e-06
9.10402e-06
9.104e-06
9.104e-06
9.10412e-06
9.10437e-06
9.10472e-06
9.10536e-06
9.10641e-06
9.10797e-06
9.11006e-06
9.11227e-06
9.11396e-06
9.11533e-06
9.11826e-06
9.12524e-06
9.13671e-06
9.14897e-06
9.15639e-06
9.15752e-06
9.15951e-06
9.1739e-06
9.20641e-06
9.25155e-06
9.29803e-06
9.33693e-06
9.36781e-06
9.40595e-06
9.46218e-06
9.54945e-06
9.70086e-06
9.95444e-06
1.03434e-05
1.0888e-05
1.16019e-05
1.25101e-05
1.37051e-05
1.53689e-05
1.77289e-05
2.09428e-05
2.50629e-05
3.19359e-05
9.02668e-05
0.000326407
0.000471593
9.10662e-06
9.10417e-06
9.10486e-06
9.10425e-06
9.10419e-06
9.10405e-06
9.10398e-06
9.10397e-06
9.10402e-06
9.10406e-06
9.10409e-06
9.10411e-06
9.10412e-06
9.10411e-06
9.10406e-06
9.10411e-06
9.10431e-06
9.10462e-06
9.10514e-06
9.10601e-06
9.10727e-06
9.10913e-06
9.11159e-06
9.11411e-06
9.116e-06
9.11755e-06
9.12083e-06
9.12859e-06
9.14118e-06
9.15449e-06
9.1627e-06
9.16479e-06
9.16869e-06
9.18558e-06
9.22018e-06
9.26765e-06
9.31779e-06
9.36193e-06
9.4076e-06
9.45945e-06
9.52808e-06
9.6382e-06
9.83485e-06
1.01745e-05
1.07063e-05
1.14529e-05
1.24002e-05
1.3542e-05
1.4967e-05
1.68903e-05
1.95754e-05
2.32225e-05
2.89861e-05
7.06968e-05
0.000305924
0.000487735
0.000524513
9.10676e-06
9.10422e-06
9.10495e-06
9.10435e-06
9.10424e-06
9.10412e-06
9.10403e-06
9.10401e-06
9.10407e-06
9.10412e-06
9.10416e-06
9.1042e-06
9.10422e-06
9.10422e-06
9.10417e-06
9.10415e-06
9.10426e-06
9.10453e-06
9.10497e-06
9.10572e-06
9.1068e-06
9.10833e-06
9.11053e-06
9.11338e-06
9.11625e-06
9.11836e-06
9.1201e-06
9.12376e-06
9.13232e-06
9.14596e-06
9.16032e-06
9.16944e-06
9.17323e-06
9.17988e-06
9.19968e-06
9.23674e-06
9.2869e-06
9.34027e-06
9.39714e-06
9.45694e-06
9.52804e-06
9.6205e-06
9.76932e-06
1.00362e-05
1.04966e-05
1.12124e-05
1.21896e-05
1.33807e-05
1.47566e-05
1.64175e-05
1.86139e-05
2.16462e-05
2.63466e-05
5.56337e-05
0.000277598
0.000492667
0.000559044
0.00053892
9.10696e-06
9.1043e-06
9.10504e-06
9.10444e-06
9.10429e-06
9.10417e-06
9.10411e-06
9.10405e-06
9.10412e-06
9.10418e-06
9.10423e-06
9.10428e-06
9.10431e-06
9.10433e-06
9.1043e-06
9.10425e-06
9.10428e-06
9.10447e-06
9.10483e-06
9.10546e-06
9.10646e-06
9.1078e-06
9.10961e-06
9.11219e-06
9.11546e-06
9.11869e-06
9.12108e-06
9.12303e-06
9.12711e-06
9.13648e-06
9.15117e-06
9.16646e-06
9.17694e-06
9.18329e-06
9.19369e-06
9.21701e-06
9.2571e-06
9.30987e-06
9.37293e-06
9.44249e-06
9.52395e-06
9.61904e-06
9.74777e-06
9.95862e-06
1.03277e-05
1.09444e-05
1.18676e-05
1.30854e-05
1.45264e-05
1.6149e-05
1.80695e-05
2.05465e-05
2.4242e-05
4.40063e-05
0.000245004
0.000494294
0.000577936
0.00058206
0.000530596
9.1072e-06
9.1044e-06
9.10513e-06
9.10453e-06
9.10435e-06
9.10423e-06
9.10417e-06
9.10413e-06
9.10416e-06
9.10424e-06
9.1043e-06
9.10436e-06
9.1044e-06
9.10443e-06
9.10443e-06
9.10438e-06
9.10436e-06
9.10448e-06
9.10474e-06
9.10524e-06
9.10614e-06
9.10741e-06
9.10901e-06
9.11116e-06
9.11416e-06
9.11785e-06
9.12147e-06
9.12415e-06
9.12636e-06
9.13105e-06
9.14129e-06
9.15692e-06
9.17326e-06
9.18554e-06
9.19553e-06
9.21045e-06
9.2382e-06
9.28261e-06
9.34379e-06
9.41763e-06
9.50472e-06
9.60748e-06
9.73695e-06
9.92492e-06
1.02262e-05
1.07253e-05
1.15167e-05
1.26591e-05
1.41295e-05
1.58385e-05
1.77368e-05
1.99119e-05
2.28178e-05
3.58187e-05
0.000208057
0.000490568
0.000597924
0.000607869
0.000576675
0.000509379
9.10742e-06
9.10452e-06
9.10522e-06
9.10461e-06
9.10441e-06
9.10429e-06
9.10423e-06
9.10419e-06
9.10422e-06
9.10428e-06
9.10437e-06
9.10444e-06
9.10449e-06
9.10453e-06
9.10455e-06
9.10452e-06
9.10449e-06
9.10456e-06
9.10475e-06
9.10511e-06
9.10583e-06
9.10703e-06
9.10858e-06
9.11048e-06
9.11303e-06
9.11644e-06
9.12057e-06
9.12461e-06
9.12757e-06
9.13033e-06
9.13575e-06
9.14695e-06
9.16359e-06
9.18087e-06
9.1956e-06
9.20994e-06
9.23039e-06
9.26553e-06
9.31984e-06
9.39135e-06
9.47573e-06
9.57906e-06
9.71141e-06
9.89619e-06
1.01681e-05
1.05832e-05
1.12318e-05
1.22133e-05
1.35875e-05
1.53258e-05
1.73238e-05
1.94851e-05
2.19834e-05
3.05618e-05
0.000169535
0.000480207
0.00061525
0.000636858
0.000605327
0.000555077
0.000482625
9.10761e-06
9.10463e-06
9.1053e-06
9.10469e-06
9.1045e-06
9.10435e-06
9.1043e-06
9.10426e-06
9.10426e-06
9.10435e-06
9.10442e-06
9.10451e-06
9.10457e-06
9.10463e-06
9.10466e-06
9.10465e-06
9.10463e-06
9.10468e-06
9.10483e-06
9.1051e-06
9.10563e-06
9.10666e-06
9.10815e-06
9.10999e-06
9.11228e-06
9.11524e-06
9.11906e-06
9.12365e-06
9.12806e-06
9.13153e-06
9.13498e-06
9.14138e-06
9.15383e-06
9.17117e-06
9.18954e-06
9.20716e-06
9.22667e-06
9.2567e-06
9.3043e-06
9.3705e-06
9.44857e-06
9.54456e-06
9.66989e-06
9.84809e-06
1.01102e-05
1.04896e-05
1.10445e-05
1.18617e-05
1.30417e-05
1.46535e-05
1.66598e-05
1.89313e-05
2.13959e-05
2.7404e-05
0.000133007
0.000462611
0.000629679
0.000664435
0.000638283
0.000584146
0.000525865
0.000457243
9.10778e-06
9.10473e-06
9.10538e-06
9.10478e-06
9.1046e-06
9.10441e-06
9.10436e-06
9.10433e-06
9.10432e-06
9.1044e-06
9.1045e-06
9.10457e-06
9.10466e-06
9.10472e-06
9.10477e-06
9.10478e-06
9.10477e-06
9.10482e-06
9.10494e-06
9.10518e-06
9.10559e-06
9.10638e-06
9.10772e-06
9.10951e-06
9.11171e-06
9.11442e-06
9.11778e-06
9.12204e-06
9.12704e-06
9.13188e-06
9.13602e-06
9.1404e-06
9.14829e-06
9.16193e-06
9.17994e-06
9.19959e-06
9.22073e-06
9.24939e-06
9.29264e-06
9.35426e-06
9.42893e-06
9.51716e-06
9.62838e-06
9.78638e-06
1.00308e-05
1.03962e-05
1.09155e-05
1.16324e-05
1.26222e-05
1.39957e-05
1.5823e-05
1.80799e-05
2.06552e-05
2.53858e-05
0.000101704
0.000438162
0.000640593
0.000690802
0.000670691
0.000618079
0.000553899
0.000496443
0.00043597
9.10793e-06
9.10483e-06
9.10546e-06
9.10486e-06
9.1047e-06
9.10449e-06
9.10444e-06
9.1044e-06
9.10439e-06
9.10446e-06
9.10455e-06
9.10465e-06
9.10472e-06
9.10481e-06
9.10487e-06
9.10489e-06
9.1049e-06
9.10496e-06
9.10507e-06
9.1053e-06
9.10566e-06
9.10628e-06
9.10738e-06
9.10903e-06
9.11113e-06
9.11376e-06
9.1169e-06
9.12067e-06
9.12535e-06
9.13069e-06
9.13609e-06
9.141e-06
9.1468e-06
9.1566e-06
9.17166e-06
9.1905e-06
9.2121e-06
9.23963e-06
9.279e-06
9.33671e-06
9.41221e-06
9.49936e-06
9.6007e-06
9.73369e-06
9.94258e-06
1.02805e-05
1.07829e-05
1.14663e-05
1.2349e-05
1.35014e-05
1.50357e-05
1.70563e-05
1.95804e-05
2.3686e-05
7.73689e-05
0.000407909
0.000647861
0.000715415
0.000703014
0.000652068
0.000587
0.000522475
0.000473623
0.00041964
9.10807e-06
9.10491e-06
9.10555e-06
9.10494e-06
9.10481e-06
9.10457e-06
9.10451e-06
9.10448e-06
9.10447e-06
9.10452e-06
9.10462e-06
9.10471e-06
9.10482e-06
9.10488e-06
9.10497e-06
9.105e-06
9.10502e-06
9.10508e-06
9.1052e-06
9.10542e-06
9.10577e-06
9.1063e-06
9.1072e-06
9.10864e-06
9.11058e-06
9.11307e-06
9.11616e-06
9.11973e-06
9.12393e-06
9.12891e-06
9.13467e-06
9.14062e-06
9.1466e-06
9.15459e-06
9.16689e-06
9.18373e-06
9.20422e-06
9.22916e-06
9.26288e-06
9.3144e-06
9.38979e-06
9.48179e-06
9.585e-06
9.70439e-06
9.87406e-06
1.01596e-05
1.06202e-05
1.12844e-05
1.21413e-05
1.31827e-05
1.44695e-05
1.61346e-05
1.83415e-05
2.18938e-05
5.95162e-05
0.000373904
0.00065159
0.000738226
0.000734778
0.000686729
0.000620554
0.000553593
0.000497357
0.000456973
0.000410928
9.10821e-06
9.105e-06
9.10567e-06
9.10503e-06
9.10491e-06
9.10467e-06
9.10458e-06
9.10456e-06
9.10455e-06
9.10458e-06
9.10468e-06
9.10479e-06
9.10488e-06
9.10498e-06
9.10504e-06
9.10511e-06
9.10514e-06
9.1052e-06
9.10533e-06
9.10555e-06
9.10588e-06
9.10639e-06
9.10717e-06
9.10839e-06
9.11014e-06
9.11241e-06
9.11533e-06
9.11888e-06
9.12291e-06
9.12747e-06
9.13279e-06
9.13894e-06
9.14559e-06
9.15341e-06
9.16428e-06
9.1797e-06
9.19919e-06
9.22169e-06
9.24915e-06
9.29102e-06
9.35919e-06
9.45359e-06
9.56639e-06
9.69101e-06
9.83958e-06
1.00673e-05
1.0452e-05
1.10594e-05
1.19018e-05
1.29331e-05
1.41193e-05
1.55043e-05
1.72666e-05
2.01279e-05
4.64156e-05
0.000338769
0.000652584
0.000759557
0.000765963
0.00072162
0.000655311
0.000585389
0.000525713
0.000479856
0.000448367
0.000412038
9.10839e-06
9.10509e-06
9.10582e-06
9.10512e-06
9.10501e-06
9.10478e-06
9.10466e-06
9.10464e-06
9.10464e-06
9.10466e-06
9.10475e-06
9.10486e-06
9.10496e-06
9.10505e-06
9.10515e-06
9.10519e-06
9.10526e-06
9.10531e-06
9.10546e-06
9.10568e-06
9.10601e-06
9.10649e-06
9.10722e-06
9.10828e-06
9.10987e-06
9.1119e-06
9.11453e-06
9.11791e-06
9.12193e-06
9.12641e-06
9.13132e-06
9.13701e-06
9.1437e-06
9.15154e-06
9.16169e-06
9.17622e-06
9.19547e-06
9.21772e-06
9.24187e-06
9.27417e-06
9.32788e-06
9.41415e-06
9.53167e-06
9.67149e-06
9.82588e-06
1.00197e-05
1.03235e-05
1.08294e-05
1.16037e-05
1.26335e-05
1.38389e-05
1.5134e-05
1.65658e-05
1.87117e-05
3.70358e-05
0.000304448
0.000652497
0.000780408
0.000796901
0.00075671
0.000690797
0.000618911
0.000554773
0.000507269
0.000471123
0.000449654
0.000423808
9.10864e-06
9.1052e-06
9.10599e-06
9.10524e-06
9.10511e-06
9.10489e-06
9.10474e-06
9.10472e-06
9.10472e-06
9.10474e-06
9.10482e-06
9.10493e-06
9.10504e-06
9.10514e-06
9.10522e-06
9.1053e-06
9.10535e-06
9.10542e-06
9.10557e-06
9.10581e-06
9.10614e-06
9.10663e-06
9.10732e-06
9.10827e-06
9.1097e-06
9.11158e-06
9.11392e-06
9.11695e-06
9.12078e-06
9.12529e-06
9.13018e-06
9.13553e-06
9.1418e-06
9.14922e-06
9.15852e-06
9.1717e-06
9.19033e-06
9.21385e-06
9.2393e-06
9.26737e-06
9.30668e-06
9.37492e-06
9.48252e-06
9.62946e-06
9.80364e-06
9.9995e-06
1.02548e-05
1.06541e-05
1.1301e-05
1.22556e-05
1.34775e-05
1.48294e-05
1.61818e-05
1.78409e-05
3.06354e-05
0.000273377
0.000653352
0.000802509
0.00082848
0.000792313
0.000726936
0.00065346
0.000586277
0.000535249
0.000498488
0.000472615
0.000461599
0.000443216
9.10895e-06
9.10534e-06
9.10616e-06
9.10539e-06
9.10522e-06
9.105e-06
9.10483e-06
9.10481e-06
9.10481e-06
9.10484e-06
9.1049e-06
9.10501e-06
9.10512e-06
9.10522e-06
9.10532e-06
9.10539e-06
9.10547e-06
9.10553e-06
9.10569e-06
9.10593e-06
9.10629e-06
9.10677e-06
9.10746e-06
9.10834e-06
9.10961e-06
9.11137e-06
9.11356e-06
9.11622e-06
9.11964e-06
9.12394e-06
9.1289e-06
9.13429e-06
9.14029e-06
9.14717e-06
9.1555e-06
9.16675e-06
9.18327e-06
9.20685e-06
9.23555e-06
9.26609e-06
9.29933e-06
9.34942e-06
9.4348e-06
9.56907e-06
9.75285e-06
9.97059e-06
1.02235e-05
1.05577e-05
1.10691e-05
1.18703e-05
1.30075e-05
1.4405e-05
1.58661e-05
1.7399e-05
2.6638e-05
0.000246543
0.000657979
0.000828072
0.000862207
0.000829188
0.000764044
0.000688886
0.000619029
0.000564905
0.000526383
0.000500348
0.000484909
0.000481784
0.000466535
9.10929e-06
9.10551e-06
9.10633e-06
9.10554e-06
9.10533e-06
9.10511e-06
9.10494e-06
9.10491e-06
9.10491e-06
9.10494e-06
9.10499e-06
9.1051e-06
9.10521e-06
9.10531e-06
9.10541e-06
9.10549e-06
9.10556e-06
9.10566e-06
9.1058e-06
9.10606e-06
9.10642e-06
9.10692e-06
9.10762e-06
9.10849e-06
9.10963e-06
9.11124e-06
9.11332e-06
9.11578e-06
9.11876e-06
9.12257e-06
9.12732e-06
9.13277e-06
9.13879e-06
9.14549e-06
9.15322e-06
9.1628e-06
9.17629e-06
9.19717e-06
9.22662e-06
9.26188e-06
9.29878e-06
9.34103e-06
9.40475e-06
9.51133e-06
9.6797e-06
9.90866e-06
1.01842e-05
1.05103e-05
1.09373e-05
1.15725e-05