/*--------------------------------*- C++ -*----------------------------------*\
  =========                 |
  \\      /  F ield         | OpenFOAM: The Open Source CFD Toolbox
   \\    /   O peration     | Website:  https://openfoam.org
    \\  /    A nd           | Version:  dev
     \\/     M anipulation  |
\*---------------------------------------------------------------------------*/
FoamFile
{
    version     2.0;
    format      ascii;
    class       volScalarField;
    location    "100";
    object      nuTilda;
}
// * * * * * * * * * * * * * * * * * * * * * * * * * * * * * * * * * * * * * //

dimensions      [0 2 -1 0 0 0 0];

internalField   nonuniform List<scalar> 
29380
(
6.00419e-05
6.00384e-05
6.00196e-05
6.00362e-05
6.00178e-05
6.0018e-05
6.00336e-05
6.00167e-05
6.0016e-05
6.00121e-05
6.00308e-05
6.00156e-05
6.00149e-05
6.00115e-05
6.00076e-05
6.00283e-05
6.00146e-05
6.00138e-05
6.0011e-05
6.00071e-05
6.00076e-05
6.00264e-05
6.00137e-05
6.00127e-05
6.00105e-05
6.00068e-05
6.00059e-05
6.00096e-05
6.0025e-05
6.00129e-05
6.00118e-05
6.001e-05
6.00065e-05
6.00054e-05
6.00079e-05
6.00155e-05
6.00236e-05
6.0012e-05
6.0011e-05
6.00095e-05
6.00063e-05
6.00048e-05
6.00072e-05
6.00129e-05
6.00195e-05
6.0022e-05
6.00112e-05
6.00102e-05
6.0009e-05
6.0006e-05
6.00045e-05
6.00063e-05
6.00118e-05
6.00166e-05
6.0027e-05
6.00201e-05
6.00105e-05
6.00093e-05
6.00085e-05
6.00057e-05
6.00044e-05
6.00057e-05
6.00105e-05
6.00152e-05
6.00232e-05
6.00347e-05
6.00182e-05
6.00099e-05
6.00085e-05
6.00078e-05
6.00054e-05
6.00044e-05
6.00051e-05
6.00095e-05
6.00136e-05
6.00213e-05
6.00301e-05
6.00455e-05
6.00167e-05
6.00095e-05
6.00078e-05
6.00072e-05
6.00051e-05
6.00042e-05
6.00047e-05
6.00086e-05
6.00123e-05
6.00191e-05
6.00276e-05
6.00397e-05
6.0058e-05
6.00157e-05
6.00091e-05
6.00073e-05
6.00066e-05
6.00046e-05
6.00039e-05
6.00042e-05
6.00079e-05
6.00112e-05
6.00173e-05
6.00249e-05
6.00365e-05
6.00508e-05
6.00736e-05
6.00152e-05
6.00089e-05
6.00071e-05
6.00062e-05
6.00042e-05
6.00036e-05
6.00037e-05
6.00072e-05
6.00103e-05
6.00158e-05
6.00226e-05
6.0033e-05
6.00468e-05
6.00646e-05
6.00923e-05
6.00146e-05
6.00085e-05
6.00071e-05
6.0006e-05
6.0004e-05
6.00034e-05
6.00032e-05
6.00065e-05
6.00095e-05
6.00145e-05
6.00206e-05
6.003e-05
6.00423e-05
6.00596e-05
6.00809e-05
6.01153e-05
6.00138e-05
6.00081e-05
6.0007e-05
6.0006e-05
6.00039e-05
6.00034e-05
6.00028e-05
6.00057e-05
6.00086e-05
6.00134e-05
6.0019e-05
6.00274e-05
6.00385e-05
6.0054e-05
6.00746e-05
6.0101e-05
6.01436e-05
6.00127e-05
6.00076e-05
6.00066e-05
6.00058e-05
6.0004e-05
6.00034e-05
6.00026e-05
6.00049e-05
6.00076e-05
6.00122e-05
6.00176e-05
6.00253e-05
6.00353e-05
6.0049e-05
6.00676e-05
6.00931e-05
6.01258e-05
6.01777e-05
6.00116e-05
6.00071e-05
6.00061e-05
6.00056e-05
6.00041e-05
6.00035e-05
6.00025e-05
6.00044e-05
6.00067e-05
6.00109e-05
6.00161e-05
6.00234e-05
6.00326e-05
6.00449e-05
6.00615e-05
6.00842e-05
6.01159e-05
6.01558e-05
6.02199e-05
6.00109e-05
6.00067e-05
6.00056e-05
6.00053e-05
6.0004e-05
6.00035e-05
6.00026e-05
6.00041e-05
6.0006e-05
6.00096e-05
6.00144e-05
6.00215e-05
6.00303e-05
6.00415e-05
6.00563e-05
6.00764e-05
6.01047e-05
6.0144e-05
6.01926e-05
6.02697e-05
6.00105e-05
6.00064e-05
6.00052e-05
6.0005e-05
6.00037e-05
6.00034e-05
6.00027e-05
6.00039e-05
6.00055e-05
6.00086e-05
6.00128e-05
6.00194e-05
6.00279e-05
6.00387e-05
6.00521e-05
6.007e-05
6.00947e-05
6.01298e-05
6.01773e-05
6.02359e-05
6.03325e-05
6.00103e-05
6.00062e-05
6.00052e-05
6.00049e-05
6.00035e-05
6.00032e-05
6.00026e-05
6.00037e-05
6.00052e-05
6.00079e-05
6.00114e-05
6.00173e-05
6.00252e-05
6.00358e-05
6.00486e-05
6.00649e-05
6.00864e-05
6.01171e-05
6.01595e-05
6.02177e-05
6.02899e-05
6.04078e-05
6.00099e-05
6.0006e-05
6.00052e-05
6.00049e-05
6.00034e-05
6.0003e-05
6.00025e-05
6.00034e-05
6.0005e-05
6.00075e-05
6.00104e-05
6.00155e-05
6.00224e-05
6.00324e-05
6.00449e-05
6.00607e-05
6.00801e-05
6.01065e-05
6.01438e-05
6.01957e-05
6.02659e-05
6.03552e-05
6.04966e-05
6.00093e-05
6.00058e-05
6.00053e-05
6.00049e-05
6.00035e-05
6.00029e-05
6.00024e-05
6.0003e-05
6.00046e-05
6.0007e-05
6.00098e-05
6.00141e-05
6.002e-05
6.00288e-05
6.00408e-05
6.00563e-05
6.00751e-05
6.00986e-05
6.01306e-05
6.01757e-05
6.0237e-05
6.03251e-05
6.04326e-05
6.06e-05
6.00087e-05
6.00054e-05
6.00053e-05
6.00049e-05
6.00037e-05
6.00029e-05
6.00023e-05
6.00027e-05
6.00041e-05
6.00065e-05
6.00092e-05
6.00132e-05
6.00183e-05
6.00256e-05
6.00364e-05
6.00513e-05
6.00701e-05
6.00926e-05
6.01209e-05
6.0159e-05
6.02114e-05
6.02881e-05
6.03956e-05
6.05227e-05
6.07187e-05
6.00082e-05
6.00051e-05
6.0005e-05
6.00048e-05
6.00038e-05
6.00031e-05
6.00024e-05
6.00025e-05
6.00036e-05
6.00058e-05
6.00085e-05
6.00124e-05
6.00171e-05
6.00234e-05
6.00325e-05
6.00458e-05
6.00642e-05
6.00867e-05
6.01135e-05
6.01468e-05
6.01907e-05
6.02545e-05
6.03488e-05
6.0478e-05
6.0626e-05
6.08527e-05
6.00079e-05
6.00049e-05
6.00047e-05
6.00046e-05
6.00037e-05
6.00032e-05
6.00026e-05
6.00025e-05
6.00033e-05
6.00051e-05
6.00076e-05
6.00115e-05
6.00161e-05
6.00219e-05
6.00295e-05
6.00408e-05
6.00575e-05
6.00797e-05
6.01065e-05
6.01381e-05
6.01765e-05
6.02272e-05
6.03057e-05
6.042e-05
6.05724e-05
6.07423e-05
6.10023e-05
6.00076e-05
6.00047e-05
6.00046e-05
6.00044e-05
6.00036e-05
6.00033e-05
6.00027e-05
6.00026e-05
6.00031e-05
6.00046e-05
6.00068e-05
6.00103e-05
6.00149e-05
6.00206e-05
6.00275e-05
6.00369e-05
6.00511e-05
6.00715e-05
6.00981e-05
6.01301e-05
6.0167e-05
6.02092e-05
6.02702e-05
6.0365e-05
6.05013e-05
6.0679e-05
6.08719e-05
6.11667e-05
6.00074e-05
6.00046e-05
6.00045e-05
6.00043e-05
6.00034e-05
6.00032e-05
6.00028e-05
6.00027e-05
6.0003e-05
6.00043e-05
6.00061e-05
6.00092e-05
6.00135e-05
6.00192e-05
6.00258e-05
6.00341e-05
6.00458e-05
6.00634e-05
6.00883e-05
6.01204e-05
6.01584e-05
6.01987e-05
6.02472e-05
6.0319e-05
6.04325e-05
6.05936e-05
6.07978e-05
6.10143e-05
6.13449e-05
6.00071e-05
6.00045e-05
6.00046e-05
6.00043e-05
6.00034e-05
6.00032e-05
6.00028e-05
6.00026e-05
6.0003e-05
6.00042e-05
6.00057e-05
6.00082e-05
6.0012e-05
6.00174e-05
6.0024e-05
6.00319e-05
6.0042e-05
6.00567e-05
6.00784e-05
6.01085e-05
6.01471e-05
6.01904e-05
6.0235e-05
6.02893e-05
6.0374e-05
6.05094e-05
6.06963e-05
6.09284e-05
6.11688e-05
6.15352e-05
6.0007e-05
6.00044e-05
6.00046e-05
6.00043e-05
6.00035e-05
6.00032e-05
6.00027e-05
6.00025e-05
6.00029e-05
6.0004e-05
6.00054e-05
6.00076e-05
6.00107e-05
6.00155e-05
6.00218e-05
6.00297e-05
6.00391e-05
6.00517e-05
6.00698e-05
6.00962e-05
6.01327e-05
6.0179e-05
6.02271e-05
6.02751e-05
6.03361e-05
6.04361e-05
6.05942e-05
6.08088e-05
6.10699e-05
6.13336e-05
6.17352e-05
6.0007e-05
6.00042e-05
6.00046e-05
6.00043e-05
6.00036e-05
6.00033e-05
6.00028e-05
6.00024e-05
6.00028e-05
6.00038e-05
6.00051e-05
6.00071e-05
6.00098e-05
6.00138e-05
6.00196e-05
6.00272e-05
6.00364e-05
6.00478e-05
6.00632e-05
6.00853e-05
6.01173e-05
6.01626e-05
6.02157e-05
6.0268e-05
6.0319e-05
6.03875e-05
6.05036e-05
6.06867e-05
6.09306e-05
6.12209e-05
6.15075e-05
6.19412e-05
6.00071e-05
6.00041e-05
6.00045e-05
6.00043e-05
6.00037e-05
6.00034e-05
6.00029e-05
6.00024e-05
6.00027e-05
6.00035e-05
6.00048e-05
6.00067e-05
6.00091e-05
6.00125e-05
6.00176e-05
6.00247e-05
6.00335e-05
6.00443e-05
6.00579e-05
6.00766e-05
6.01034e-05
6.01433e-05
6.01971e-05
6.02572e-05
6.03127e-05
6.03658e-05
6.04424e-05
6.05762e-05
6.07861e-05
6.10608e-05
6.13802e-05
6.16877e-05
6.21477e-05
6.00073e-05
6.0004e-05
6.00045e-05
6.00042e-05
6.00037e-05
6.00035e-05
6.00031e-05
6.00026e-05
6.00026e-05
6.00033e-05
6.00045e-05
6.00062e-05
6.00084e-05
6.00115e-05
6.00159e-05
6.00223e-05
6.00307e-05
6.00409e-05
6.00533e-05
6.00696e-05
6.00921e-05
6.01247e-05
6.01734e-05
6.02369e-05
6.0303e-05
6.03598e-05
6.04152e-05
6.05004e-05
6.06534e-05
6.08926e-05
6.1198e-05
6.15456e-05
6.18701e-05
6.23482e-05
6.00074e-05
6.00041e-05
6.00045e-05
6.00042e-05
6.00037e-05
6.00035e-05
6.00032e-05
6.00028e-05
6.00027e-05
6.00031e-05
6.00042e-05
6.00058e-05
6.00078e-05
6.00106e-05
6.00143e-05
6.002e-05
6.00279e-05
6.00378e-05
6.00494e-05
6.00638e-05
6.0083e-05
6.01092e-05
6.01492e-05
6.02082e-05
6.0281e-05
6.03519e-05
6.04099e-05
6.04669e-05
6.05612e-05
6.0736e-05
6.10046e-05
6.13405e-05
6.17137e-05
6.20492e-05
6.25364e-05
6.00076e-05
6.00041e-05
6.00045e-05
6.00041e-05
6.00037e-05
6.00035e-05
6.00033e-05
6.0003e-05
6.00027e-05
6.00031e-05
6.00039e-05
6.00054e-05
6.00073e-05
6.00097e-05
6.00129e-05
6.00177e-05
6.0025e-05
6.00347e-05
6.0046e-05
6.00591e-05
6.00756e-05
6.00971e-05
6.01284e-05
6.01774e-05
6.02473e-05
6.03294e-05
6.04048e-05
6.04628e-05
6.05208e-05
6.06256e-05
6.08223e-05
6.11205e-05
6.14855e-05
6.18802e-05
6.22183e-05
6.27106e-05
6.00077e-05
6.00042e-05
6.00045e-05
6.00042e-05
6.00038e-05
6.00036e-05
6.00033e-05
6.00031e-05
6.00028e-05
6.00031e-05
6.00037e-05
6.00051e-05
6.00069e-05
6.00091e-05
6.00117e-05
6.00156e-05
6.00218e-05
6.00311e-05
6.00428e-05
6.00556e-05
6.00702e-05
6.00882e-05
6.01126e-05
6.01501e-05
6.02092e-05
6.02912e-05
6.03826e-05
6.04615e-05
6.05183e-05
6.0577e-05
6.06924e-05
6.09113e-05
6.12384e-05
6.16298e-05
6.20393e-05
6.23725e-05
6.28808e-05
6.00077e-05
6.00042e-05
6.00046e-05
6.00042e-05
6.00038e-05
6.00036e-05
6.00034e-05
6.00031e-05
6.00029e-05
6.00031e-05
6.00035e-05
6.00048e-05
6.00065e-05
6.00087e-05
6.0011e-05
6.0014e-05
6.00188e-05
6.00268e-05
6.00385e-05
6.00523e-05
6.00667e-05
6.00825e-05
6.01018e-05
6.01294e-05
6.01743e-05
6.02453e-05
6.03398e-05
6.04402e-05
6.05218e-05
6.05758e-05
6.06351e-05
6.07612e-05
6.10019e-05
6.13559e-05
6.17684e-05
6.21857e-05
6.25149e-05
6.30775e-05
6.00077e-05
6.00042e-05
6.00047e-05
6.00042e-05
6.00039e-05
6.00037e-05
6.00034e-05
6.00032e-05
6.0003e-05
6.0003e-05
6.00034e-05
6.00044e-05
6.0006e-05
6.00082e-05
6.00106e-05
6.00132e-05
6.00166e-05
6.00225e-05
6.00329e-05
6.00474e-05
6.00634e-05
6.00795e-05
6.0096e-05
6.01161e-05
6.01476e-05
6.02019e-05
6.02852e-05
6.03928e-05
6.05023e-05
6.05847e-05
6.06356e-05
6.06951e-05
6.08314e-05
6.10919e-05
6.14689e-05
6.1896e-05
6.23197e-05
6.26658e-05
6.33775e-05
6.00076e-05
6.00042e-05
6.00049e-05
6.00042e-05
6.0004e-05
6.00038e-05
6.00035e-05
6.00033e-05
6.00031e-05
6.00031e-05
6.00034e-05
6.00041e-05
6.00054e-05
6.00075e-05
6.00102e-05
6.00129e-05
6.00156e-05
6.00194e-05
6.00269e-05
6.00401e-05
6.00578e-05
6.00764e-05
6.00938e-05
6.01102e-05
6.01312e-05
6.0168e-05
6.02318e-05
6.03287e-05
6.04499e-05
6.05678e-05
6.06509e-05
6.06979e-05
6.0757e-05
6.09013e-05
6.11783e-05
6.15726e-05
6.20107e-05
6.2456e-05
6.28888e-05
6.3865e-05
6.00076e-05
6.00041e-05
6.0005e-05
6.00042e-05
6.00041e-05
6.00039e-05
6.00037e-05
6.00034e-05
6.00033e-05
6.00031e-05
6.00034e-05
6.00039e-05
6.00049e-05
6.00067e-05
6.00094e-05
6.00125e-05
6.00156e-05
6.00182e-05
6.00225e-05
6.0032e-05
6.00485e-05
6.00698e-05
6.00912e-05
6.01092e-05
6.0125e-05
6.01475e-05
6.01896e-05
6.02641e-05
6.03754e-05
6.05112e-05
6.06373e-05
6.07202e-05
6.07628e-05
6.08195e-05
6.09687e-05
6.12571e-05
6.16638e-05
6.21216e-05
6.26495e-05
6.32602e-05
6.46055e-05
6.00076e-05
6.00041e-05
6.0005e-05
6.00043e-05
6.00041e-05
6.0004e-05
6.00038e-05
6.00036e-05
6.00034e-05
6.00032e-05
6.00034e-05
6.00038e-05
6.00045e-05
6.00059e-05
6.00082e-05
6.00115e-05
6.00154e-05
6.00185e-05
6.0021e-05
6.0026e-05
6.00378e-05
6.00582e-05
6.00836e-05
6.01077e-05
6.01258e-05
6.01406e-05
6.01644e-05
6.02127e-05
6.02986e-05
6.04258e-05
6.05762e-05
6.07104e-05
6.07927e-05
6.08297e-05
6.08812e-05
6.10303e-05
6.13244e-05
6.17476e-05
6.22755e-05
6.29655e-05
6.38542e-05
6.56479e-05
6.00076e-05
6.00041e-05
6.00051e-05
6.00043e-05
6.00041e-05
6.0004e-05
6.00039e-05
6.00037e-05
6.00035e-05
6.00034e-05
6.00034e-05
6.00038e-05
6.00044e-05
6.00054e-05
6.0007e-05
6.001e-05
6.00142e-05
6.00187e-05
6.00217e-05
6.00241e-05
6.00298e-05
6.00444e-05
6.00693e-05
6.00994e-05
6.01259e-05
6.01431e-05
6.0157e-05
6.01823e-05
6.0237e-05
6.03356e-05
6.04793e-05
6.06447e-05
6.07867e-05
6.08685e-05
6.08979e-05
6.09397e-05
6.10827e-05
6.13826e-05
6.18625e-05
6.25278e-05
6.34793e-05
6.47257e-05
6.70197e-05
6.00076e-05
6.00041e-05
6.00052e-05
6.00043e-05
6.00041e-05
6.00041e-05
6.00039e-05
6.00038e-05
6.00037e-05
6.00035e-05
6.00035e-05
6.00038e-05
6.00044e-05
6.00052e-05
6.00063e-05
6.00084e-05
6.00122e-05
6.00175e-05
6.00224e-05
6.00254e-05
6.00273e-05
6.00341e-05
6.0052e-05
6.00819e-05
6.01169e-05
6.01449e-05
6.01615e-05
6.0174e-05
6.02011e-05
6.0263e-05
6.03749e-05
6.05357e-05
6.07163e-05
6.08671e-05
6.09476e-05
6.09657e-05
6.09918e-05
6.11259e-05
6.14623e-05
6.2057e-05
6.29479e-05
6.4249e-05
6.59108e-05
6.87163e-05
6.00077e-05
6.00042e-05
6.00053e-05
6.00044e-05
6.00041e-05
6.00041e-05
6.0004e-05
6.00039e-05
6.00038e-05
6.00037e-05
6.00036e-05
6.00038e-05
6.00043e-05
6.00051e-05
6.0006e-05
6.00074e-05
6.001e-05
6.00148e-05
6.00212e-05
6.00268e-05
6.00294e-05
6.0031e-05
6.00389e-05
6.00604e-05
6.0096e-05
6.01355e-05
6.01654e-05
6.01805e-05
6.01921e-05
6.02211e-05
6.02907e-05
6.04167e-05
6.05949e-05
6.07917e-05
6.09517e-05
6.10289e-05
6.10307e-05
6.10367e-05
6.11841e-05
6.16073e-05
6.2387e-05
6.3601e-05
6.53154e-05
6.74191e-05
7.07324e-05
6.00079e-05
6.00042e-05
6.00054e-05
6.00045e-05
6.00042e-05
6.00041e-05
6.0004e-05
6.0004e-05
6.00039e-05
6.00038e-05
6.00037e-05
6.00038e-05
6.00042e-05
6.0005e-05
6.0006e-05
6.0007e-05
6.00086e-05
6.00119e-05
6.0018e-05
6.00257e-05
6.00318e-05
6.00338e-05
6.0035e-05
6.00441e-05
6.00697e-05
6.01113e-05
6.01555e-05
6.01867e-05
6.02009e-05
6.02115e-05
6.0243e-05
6.03209e-05
6.04613e-05
6.06574e-05
6.08714e-05
6.10403e-05
6.11106e-05
6.10912e-05
6.10932e-05
6.1296e-05
6.18585e-05
6.29249e-05
6.45345e-05
6.67101e-05
6.92621e-05
7.30388e-05
6.00082e-05
6.00043e-05
6.00054e-05
6.00046e-05
6.00043e-05
6.00041e-05
6.00041e-05
6.0004e-05
6.0004e-05
6.00039e-05
6.00039e-05
6.00038e-05
6.00041e-05
6.00048e-05
6.00058e-05
6.0007e-05
6.00081e-05
6.001e-05
6.00142e-05
6.00216e-05
6.00307e-05
6.00372e-05
6.00387e-05
6.00392e-05
6.00497e-05
6.00801e-05
6.01277e-05
6.01766e-05
6.02093e-05
6.02228e-05
6.0233e-05
6.02676e-05
6.03542e-05
6.05089e-05
6.07238e-05
6.09556e-05
6.11313e-05
6.11902e-05
6.1163e-05
6.11931e-05
6.1492e-05
6.22912e-05
6.37306e-05
6.57961e-05
6.84272e-05
7.1384e-05
7.55843e-05
6.00084e-05
6.00044e-05
6.00055e-05
6.00047e-05
6.00045e-05
6.00042e-05
6.00041e-05
6.00041e-05
6.0004e-05
6.0004e-05
6.0004e-05
6.0004e-05
6.00041e-05
6.00046e-05
6.00055e-05
6.00069e-05
6.00082e-05
6.00094e-05
6.00116e-05
6.00167e-05
6.00258e-05
6.00364e-05
6.00433e-05
6.0044e-05
6.00439e-05
6.00563e-05
6.00913e-05
6.01451e-05
6.01987e-05
6.02334e-05
6.02468e-05
6.02574e-05
6.02957e-05
6.03908e-05
6.05602e-05
6.07947e-05
6.10436e-05
6.1222e-05
6.12821e-05
6.12687e-05
6.13622e-05
6.1845e-05
6.29793e-05
6.48471e-05
6.73586e-05
7.04068e-05
7.37395e-05
7.83608e-05
6.00086e-05
6.00045e-05
6.00055e-05
6.00047e-05
6.00046e-05
6.00043e-05
6.00042e-05
6.00041e-05
6.00041e-05
6.00041e-05
6.00041e-05
6.00041e-05
6.00042e-05
6.00045e-05
6.00051e-05
6.00064e-05
6.00081e-05
6.00096e-05
6.00109e-05
6.00134e-05
6.00197e-05
6.00305e-05
6.00427e-05
6.00501e-05
6.00499e-05
6.00493e-05
6.00635e-05
6.01036e-05
6.01636e-05
6.02222e-05
6.02592e-05
6.02733e-05
6.02854e-05
6.03278e-05
6.04319e-05
6.06165e-05
6.08704e-05
6.11328e-05
6.1326e-05
6.13997e-05
6.14337e-05
6.16684e-05
6.24332e-05
6.39485e-05
6.62452e-05
6.91833e-05
7.2636e-05
7.63393e-05
8.13838e-05
6.00088e-05
6.00046e-05
6.00056e-05
6.00048e-05
6.00046e-05
6.00044e-05
6.00043e-05
6.00043e-05
6.00042e-05
6.00041e-05
6.00042e-05
6.00042e-05
6.00043e-05
6.00045e-05
6.00049e-05
6.00058e-05
6.00075e-05
6.00095e-05
6.00111e-05
6.00125e-05
6.00155e-05
6.0023e-05
6.00358e-05
6.00497e-05
6.00575e-05
6.00564e-05
6.00554e-05
6.00717e-05
6.01168e-05
6.01831e-05
6.02469e-05
6.02869e-05
6.0303e-05
6.03178e-05
6.03655e-05
6.0479e-05
6.06793e-05
6.09499e-05
6.12353e-05
6.14498e-05
6.15703e-05
6.17176e-05
6.21782e-05
6.32741e-05
6.51915e-05
6.79183e-05
7.12772e-05
7.51256e-05
7.92049e-05
8.46759e-05
6.0009e-05
6.00047e-05
6.00056e-05
6.00048e-05
6.00047e-05
6.00044e-05
6.00044e-05
6.00044e-05
6.00043e-05
6.00043e-05
6.00042e-05
6.00043e-05
6.00043e-05
6.00045e-05
6.00048e-05
6.00054e-05
6.00067e-05
6.00088e-05
6.00111e-05
6.00129e-05
6.00144e-05
6.0018e-05
6.00268e-05
6.00417e-05
6.00574e-05
6.00656e-05
6.00637e-05
6.00624e-05
6.00809e-05
6.01311e-05
6.02039e-05
6.02731e-05
6.03171e-05
6.03369e-05
6.03564e-05
6.04104e-05
6.05346e-05
6.07496e-05
6.1043e-05
6.1356e-05
6.16212e-05
6.18377e-05
6.21682e-05
6.29223e-05
6.43926e-05
6.67253e-05
6.98707e-05
7.36356e-05
7.78852e-05
8.23609e-05
8.82776e-05
6.00091e-05
6.00047e-05
6.00057e-05
6.00049e-05
6.00048e-05
6.00045e-05
6.00044e-05
6.00045e-05
6.00045e-05
6.00044e-05
6.00044e-05
6.00044e-05
6.00044e-05
6.00045e-05
6.00048e-05
6.00052e-05
6.00061e-05
6.00078e-05
6.00104e-05
6.0013e-05
6.0015e-05
6.00167e-05
6.00208e-05
6.00311e-05
6.00482e-05
6.00657e-05
6.00744e-05
6.00719e-05
6.00705e-05
6.00915e-05
6.01471e-05
6.02264e-05
6.03012e-05
6.03504e-05
6.03762e-05
6.04025e-05
6.04652e-05
6.0602e-05
6.08354e-05
6.11564e-05
6.15164e-05
6.1864e-05
6.22403e-05
6.28432e-05
6.39524e-05
6.58113e-05
6.85383e-05
7.20841e-05
7.62621e-05
8.09315e-05
8.58212e-05
9.29341e-05
6.00093e-05
6.00048e-05
6.00058e-05
6.00049e-05
6.00049e-05
6.00047e-05
6.00045e-05
6.00045e-05
6.00046e-05
6.00046e-05
6.00045e-05
6.00045e-05
6.00045e-05
6.00045e-05
6.00048e-05
6.00052e-05
6.00057e-05
6.0007e-05
6.00092e-05
6.00122e-05
6.00153e-05
6.00175e-05
6.00193e-05
6.0024e-05
6.00359e-05
6.00553e-05
6.00747e-05
6.0084e-05
6.0081e-05
6.00801e-05
6.01042e-05
6.01657e-05
6.0251e-05
6.03317e-05
6.03877e-05
6.04221e-05
6.04586e-05
6.05344e-05
6.06881e-05
6.0945e-05
6.12987e-05
6.17269e-05
6.22221e-05
6.28583e-05
6.38061e-05
6.52831e-05
6.75068e-05
7.06102e-05
7.45607e-05
7.9163e-05
8.42544e-05
8.98649e-05
0.000108894
6.00094e-05
6.0005e-05
6.0006e-05
6.0005e-05
6.0005e-05
6.00048e-05
6.00046e-05
6.00046e-05
6.00047e-05
6.00047e-05
6.00047e-05
6.00046e-05
6.00046e-05
6.00046e-05
6.00047e-05
6.00051e-05
6.00056e-05
6.00064e-05
6.00081e-05
6.00108e-05
6.00144e-05
6.00179e-05
6.00203e-05
6.00223e-05
6.00276e-05
6.00412e-05
6.00629e-05
6.00844e-05
6.00944e-05
6.00916e-05
6.00919e-05
6.01203e-05
6.01871e-05
6.02779e-05
6.03647e-05
6.043e-05
6.04765e-05
6.05282e-05
6.06254e-05
6.08002e-05
6.10737e-05
6.14818e-05
6.20434e-05
6.27813e-05
6.37525e-05
6.50653e-05
6.68953e-05
6.94677e-05
7.29404e-05
7.72923e-05
8.23061e-05
8.79997e-05
0.000100368
0.000192473
6.00096e-05
6.0005e-05
6.00062e-05
6.00051e-05
6.00051e-05
6.00048e-05
6.00047e-05
6.00047e-05
6.00048e-05
6.00048e-05
6.00048e-05
6.00048e-05
6.00048e-05
6.00047e-05
6.00047e-05
6.0005e-05
6.00055e-05
6.00062e-05
6.00074e-05
6.00095e-05
6.00127e-05
6.00169e-05
6.0021e-05
6.00236e-05
6.00257e-05
6.00318e-05
6.0047e-05
6.00711e-05
6.00946e-05
6.01058e-05
6.01038e-05
6.01069e-05
6.01399e-05
6.02117e-05
6.03073e-05
6.04018e-05
6.04788e-05
6.05412e-05
6.0621e-05
6.07413e-05
6.09274e-05
6.12459e-05
6.17662e-05
6.25404e-05
6.35936e-05
6.49382e-05
6.66186e-05
6.87856e-05
7.16824e-05
7.55038e-05
8.02307e-05
8.57399e-05
9.62446e-05
0.000165055
0.000361554
6.00097e-05
6.00051e-05
6.00064e-05
6.00053e-05
6.00052e-05
6.00049e-05
6.00048e-05
6.00048e-05
6.00049e-05
6.00049e-05
6.0005e-05
6.0005e-05
6.0005e-05
6.00049e-05
6.00048e-05
6.00049e-05
6.00054e-05
6.0006e-05
6.0007e-05
6.00087e-05
6.00112e-05
6.0015e-05
6.00199e-05
6.00245e-05
6.00274e-05
6.00298e-05
6.00365e-05
6.00535e-05
6.00799e-05
6.01055e-05
6.01181e-05
6.01181e-05
6.01254e-05
6.01636e-05
6.024e-05
6.03412e-05
6.04447e-05
6.05347e-05
6.06283e-05
6.07355e-05
6.08765e-05
6.11051e-05
6.15134e-05
6.22078e-05
6.32637e-05
6.46905e-05
6.64275e-05
6.84569e-05
7.09222e-05
7.41111e-05
7.82502e-05
8.33918e-05
9.19966e-05
0.000148873
0.000343246
0.000478462
6.00099e-05
6.00052e-05
6.00066e-05
6.00055e-05
6.00053e-05
6.0005e-05
6.00049e-05
6.00049e-05
6.0005e-05
6.0005e-05
6.00051e-05
6.00052e-05
6.00052e-05
6.00052e-05
6.00051e-05
6.0005e-05
6.00052e-05
6.00058e-05
6.00067e-05
6.00081e-05
6.00102e-05
6.00132e-05
6.00177e-05
6.00233e-05
6.00286e-05
6.00318e-05
6.00344e-05
6.0042e-05
6.00606e-05
6.00892e-05
6.01169e-05
6.01313e-05
6.01351e-05
6.01483e-05
6.01926e-05
6.02743e-05
6.03818e-05
6.04937e-05
6.06114e-05
6.07344e-05
6.08781e-05
6.10641e-05
6.13677e-05
6.19161e-05
6.28513e-05
6.42566e-05
6.60831e-05
6.81916e-05
7.05276e-05
7.32587e-05
7.67172e-05
8.1186e-05
8.83248e-05
0.000132146
0.000325247
0.000494399
0.000529698
6.00103e-05
6.00054e-05
6.00068e-05
6.00057e-05
6.00054e-05
6.00052e-05
6.0005e-05
6.00049e-05
6.00051e-05
6.00052e-05
6.00053e-05
6.00053e-05
6.00054e-05
6.00054e-05
6.00053e-05
6.00052e-05
6.00052e-05
6.00056e-05
6.00064e-05
6.00076e-05
6.00096e-05
6.00121e-05
6.00157e-05
6.00209e-05
6.00273e-05
6.00332e-05
6.00369e-05
6.00398e-05
6.00482e-05
6.00685e-05
6.00993e-05
6.01289e-05
6.01463e-05
6.01559e-05
6.01771e-05
6.02287e-05
6.03168e-05
6.04302e-05
6.0563e-05
6.07079e-05
6.08754e-05
6.10661e-05
6.13218e-05
6.17466e-05
6.24986e-05
6.37379e-05
6.55163e-05
6.77243e-05
7.01701e-05
7.27893e-05
7.57792e-05
7.94949e-05
8.51884e-05
0.00011818
0.000300778
0.000499336
0.000563729
0.000543594
6.00108e-05
6.00055e-05
6.00069e-05
6.00058e-05
6.00055e-05
6.00053e-05
6.00052e-05
6.0005e-05
6.00051e-05
6.00053e-05
6.00054e-05
6.00055e-05
6.00056e-05
6.00056e-05
6.00056e-05
6.00054e-05
6.00054e-05
6.00056e-05
6.00062e-05
6.00072e-05
6.00089e-05
6.00114e-05
6.00144e-05
6.00186e-05
6.00247e-05
6.00319e-05
6.00385e-05
6.00426e-05
6.00459e-05
6.00555e-05
6.00776e-05
6.01103e-05
6.01421e-05
6.01639e-05
6.01817e-05
6.02126e-05
6.02734e-05
6.03699e-05
6.05002e-05
6.06559e-05
6.08392e-05
6.10503e-05
6.13083e-05
6.16792e-05
6.22826e-05
6.329e-05
6.48536e-05
6.69961e-05
6.9565e-05
7.23337e-05
7.5238e-05
7.84513e-05
8.28955e-05
0.000106588
0.000273216
0.000501107
0.000582369
0.000586163
0.000535237
6.00112e-05
6.00058e-05
6.00071e-05
6.0006e-05
6.00056e-05
6.00054e-05
6.00053e-05
6.00052e-05
6.00052e-05
6.00054e-05
6.00055e-05
6.00056e-05
6.00057e-05
6.00058e-05
6.00058e-05
6.00057e-05
6.00056e-05
6.00057e-05
6.00061e-05
6.00069e-05
6.00083e-05
6.00107e-05
6.00136e-05
6.00172e-05
6.00222e-05
6.0029e-05
6.00371e-05
6.00444e-05
6.0049e-05
6.00533e-05
6.00643e-05
6.00883e-05
6.0123e-05
6.01571e-05
6.01848e-05
6.02126e-05
6.02554e-05
6.03308e-05
6.04465e-05
6.05978e-05
6.07774e-05
6.0995e-05
6.1266e-05
6.16338e-05
6.21695e-05
6.29949e-05
6.4283e-05
6.61753e-05
6.86705e-05
7.1586e-05
7.46706e-05
7.78083e-05
8.14789e-05
9.7916e-05
0.000242923
0.000497691
0.000602119
0.000611669
0.000580693
0.000514276
6.00116e-05
6.0006e-05
6.00073e-05
6.00061e-05
6.00057e-05
6.00055e-05
6.00054e-05
6.00053e-05
6.00053e-05
6.00055e-05
6.00056e-05
6.00058e-05
6.00059e-05
6.0006e-05
6.0006e-05
6.0006e-05
6.00059e-05
6.0006e-05
6.00062e-05
6.00068e-05
6.00079e-05
6.00099e-05
6.00128e-05
6.00163e-05
6.00206e-05
6.00264e-05
6.00339e-05
6.00429e-05
6.00509e-05
6.00564e-05
6.00621e-05
6.0075e-05
6.01015e-05
6.01376e-05
6.01745e-05
6.02093e-05
6.02488e-05
6.03116e-05
6.04118e-05
6.0551e-05
6.0716e-05
6.092e-05
6.11836e-05
6.15485e-05
6.20697e-05
6.28134e-05
6.39005e-05
6.54862e-05
6.76957e-05
7.05191e-05
7.37481e-05
7.70911e-05
8.05789e-05
9.20332e-05
0.000212451
0.000487893
0.000619257
0.000640357
0.000609012
0.000559289
0.000487986
6.00119e-05
6.00062e-05
6.00074e-05
6.00063e-05
6.00059e-05
6.00056e-05
6.00055e-05
6.00055e-05
6.00054e-05
6.00056e-05
6.00057e-05
6.00059e-05
6.0006e-05
6.00062e-05
6.00062e-05
6.00062e-05
6.00062e-05
6.00063e-05
6.00065e-05
6.00069e-05
6.00077e-05
6.00093e-05
6.00119e-05
6.00154e-05
6.00195e-05
6.00247e-05
6.00311e-05
6.00396e-05
6.00493e-05
6.00581e-05
6.00649e-05
6.00724e-05
6.00884e-05
6.01171e-05
6.01545e-05
6.01948e-05
6.02381e-05
6.02976e-05
6.03882e-05
6.05169e-05
6.06717e-05
6.08569e-05
6.10926e-05
6.14246e-05
6.19236e-05
6.26466e-05
6.36533e-05
6.50278e-05
6.68951e-05
6.93843e-05
7.24728e-05
7.59593e-05
7.96254e-05
8.81579e-05
0.000184319
0.000471205
0.000633548
0.000667678
0.000641631
0.000587988
0.000530465
0.000463186
6.00122e-05
6.00064e-05
6.00076e-05
6.00064e-05
6.00061e-05
6.00057e-05
6.00056e-05
6.00056e-05
6.00056e-05
6.00057e-05
6.00059e-05
6.0006e-05
6.00062e-05
6.00063e-05
6.00064e-05
6.00065e-05
6.00065e-05
6.00065e-05
6.00067e-05
6.00071e-05
6.00078e-05
6.0009e-05
6.00112e-05
6.00144e-05
6.00184e-05
6.00234e-05
6.00293e-05
6.00366e-05
6.00458e-05
6.00561e-05
6.00661e-05
6.00744e-05
6.0085e-05
6.01047e-05
6.01359e-05
6.01751e-05
6.02201e-05
6.02781e-05
6.03615e-05
6.04826e-05
6.0638e-05
6.08171e-05
6.1028e-05
6.13087e-05
6.17459e-05
6.24317e-05
6.34172e-05
6.4718e-05
6.63645e-05
6.84694e-05
7.11586e-05
7.44562e-05
7.82333e-05
8.52339e-05
0.000160069
0.000448131
0.000644379
0.000693826
0.000673749
0.000621546
0.000558087
0.000501554
0.000442531
6.00124e-05
6.00065e-05
6.00077e-05
6.00066e-05
6.00063e-05
6.00059e-05
6.00058e-05
6.00057e-05
6.00057e-05
6.00058e-05
6.0006e-05
6.00062e-05
6.00063e-05
6.00065e-05
6.00066e-05
6.00067e-05
6.00067e-05
6.00068e-05
6.0007e-05
6.00074e-05
6.0008e-05
6.0009e-05
6.00108e-05
6.00136e-05
6.00173e-05
6.00221e-05
6.00279e-05
6.00346e-05
6.00427e-05
6.00524e-05
6.00635e-05
6.00746e-05
6.00852e-05
6.01004e-05
6.0125e-05
6.01596e-05
6.02022e-05
6.0255e-05
6.03277e-05
6.04379e-05
6.05955e-05
6.07837e-05
6.09935e-05
6.12394e-05
6.15958e-05
6.21895e-05
6.31169e-05
6.44001e-05
6.59896e-05
6.78686e-05
7.01369e-05
7.29628e-05
7.64669e-05
8.24847e-05
0.000140118
0.000419881
0.000651621
0.000718256
0.000705818
0.000655209
0.000590764
0.000527132
0.000479241
0.000426759
6.00127e-05
6.00067e-05
6.00079e-05
6.00067e-05
6.00065e-05
6.00061e-05
6.00059e-05
6.00059e-05
6.00059e-05
6.00059e-05
6.00061e-05
6.00063e-05
6.00065e-05
6.00066e-05
6.00068e-05
6.00069e-05
6.00069e-05
6.0007e-05
6.00072e-05
6.00076e-05
6.00082e-05
6.00092e-05
6.00107e-05
6.0013e-05
6.00164e-05
6.00208e-05
6.00264e-05
6.00331e-05
6.00406e-05
6.00492e-05
6.00595e-05
6.00715e-05
6.00839e-05
6.00986e-05
6.01198e-05
6.01508e-05
6.01905e-05
6.02373e-05
6.02964e-05
6.03876e-05
6.05342e-05
6.07311e-05
6.09604e-05
6.12108e-05
6.15146e-05
6.19902e-05
6.27841e-05
6.39907e-05
6.55818e-05
6.74343e-05
6.94932e-05
7.18499e-05
7.47681e-05
7.97391e-05
0.000124023
0.000388656
0.000655388
0.000740916
0.000737361
0.000689581
0.000623949
0.000557774
0.000502485
0.00046303
0.000418368
6.0013e-05
6.00068e-05
6.00082e-05
6.00069e-05
6.00067e-05
6.00063e-05
6.00061e-05
6.0006e-05
6.0006e-05
6.00061e-05
6.00062e-05
6.00064e-05
6.00066e-05
6.00068e-05
6.00069e-05
6.00071e-05
6.00071e-05
6.00072e-05
6.00075e-05
6.00079e-05
6.00085e-05
6.00094e-05
6.00107e-05
6.00128e-05
6.00158e-05
6.00197e-05
6.00248e-05
6.00313e-05
6.00388e-05
6.00471e-05
6.00564e-05
6.00673e-05
6.00802e-05
6.00953e-05
6.01151e-05
6.01442e-05
6.0183e-05
6.02281e-05
6.02782e-05
6.03482e-05
6.04664e-05
6.06518e-05
6.08965e-05
6.11789e-05
6.14862e-05
6.18808e-05
6.25105e-05
6.35421e-05
6.50513e-05
6.69412e-05
6.90264e-05
7.11841e-05
7.35505e-05
7.73777e-05
0.00011107
0.000357169
0.00065648
0.000762123
0.000768356
0.000724219
0.000658377
0.000589155
0.00053033
0.000485377
0.000454669
0.000419418
6.00134e-05
6.0007e-05
6.00085e-05
6.00071e-05
6.00069e-05
6.00065e-05
6.00062e-05
6.00062e-05
6.00062e-05
6.00062e-05
6.00064e-05
6.00066e-05
6.00068e-05
6.0007e-05
6.00072e-05
6.00072e-05
6.00074e-05
6.00074e-05
6.00077e-05
6.00081e-05
6.00087e-05
6.00096e-05
6.00109e-05
6.00127e-05
6.00155e-05
6.0019e-05
6.00235e-05
6.00293e-05
6.00367e-05
6.00451e-05
6.00542e-05
6.00642e-05
6.00762e-05
6.00906e-05
6.01089e-05
6.01355e-05
6.01735e-05
6.0221e-05
6.02721e-05
6.03304e-05
6.04163e-05
6.05665e-05
6.07976e-05
6.11027e-05
6.14516e-05
6.18393e-05
6.23557e-05
6.31748e-05
6.44727e-05
6.62882e-05
6.84581e-05
7.07013e-05
7.28666e-05
7.57753e-05
0.000101208
0.000327457
0.000656544
0.00078287
0.000799127
0.000759087
0.000693572
0.000622303
0.000558942
0.000512234
0.000476857
0.000455902
0.000430744
6.0014e-05
6.00073e-05
6.00088e-05
6.00074e-05
6.00071e-05
6.00067e-05
6.00064e-05
6.00063e-05
6.00063e-05
6.00064e-05
6.00065e-05
6.00067e-05
6.00069e-05
6.00071e-05
6.00073e-05
6.00075e-05
6.00075e-05
6.00077e-05
6.00079e-05
6.00084e-05
6.0009e-05
6.00099e-05
6.00111e-05
6.00128e-05
6.00152e-05
6.00186e-05
6.00227e-05
6.00278e-05
6.00344e-05
6.00426e-05
6.00519e-05
6.00619e-05
6.00731e-05
6.00862e-05
6.01025e-05
6.01252e-05
6.01593e-05
6.02079e-05
6.0266e-05
6.03274e-05
6.03964e-05
6.0506e-05
6.06936e-05
6.09815e-05
6.13607e-05
6.17937e-05
6.22915e-05
6.29617e-05
6.39969e-05
6.55713e-05
6.76747e-05
7.00661e-05
7.23874e-05
7.49189e-05
9.4229e-05
0.000301846
0.000657585
0.000804875
0.000830558
0.000794496
0.000729456
0.000656519
0.000590034
0.000539728
0.000503633
0.000478298
0.000467496
0.000449508
6.00146e-05
6.00076e-05
6.00092e-05
6.00077e-05
6.00073e-05
6.00069e-05
6.00066e-05
6.00065e-05
6.00065e-05
6.00066e-05
6.00067e-05
6.00069e-05
6.00071e-05
6.00073e-05
6.00075e-05
6.00076e-05
6.00078e-05
6.00079e-05
6.00082e-05
6.00086e-05
6.00093e-05
6.00102e-05
6.00114e-05
6.0013e-05
6.00152e-05
6.00183e-05
6.00222e-05
6.00268e-05
6.00325e-05
6.00398e-05
6.00489e-05
6.00592e-05
6.00704e-05
6.00829e-05
6.00977e-05
6.01166e-05
6.01444e-05
6.01882e-05
6.02495e-05
6.03212e-05
6.03952e-05
6.04831e-05
6.06221e-05
6.08557e-05
6.1215e-05
6.16837e-05
6.22278e-05
6.28649e-05
6.37119e-05
6.49749e-05
6.68041e-05
6.91524e-05
7.17081e-05
7.43615e-05
8.96063e-05
0.000281059
0.000662394
0.000830339
0.000864148
0.000831196
0.000766339
0.000691652
0.000622414
0.000568943
0.000531015
0.000505442
0.000490281
0.000487165
0.000472184
6.00153e-05
6.00079e-05
6.00094e-05
6.0008e-05
6.00075e-05
6.00071e-05
6.00068e-05
6.00067e-05
6.00067e-05
6.00068e-05
6.00069e-05
6.0007e-05
6.00073e-05
6.00075e-05
6.00077e-05
6.00078e-05
6.0008e-05
6.00082e-05
6.00084e-05
6.00089e-05
6.00095e-05
6.00104e-05
6.00118e-05
6.00134e-05
6.00154e-05
6.00182e-05
6.00219e-05
6.00263e-05
6.00313e-05
6.00376e-05
6.00457e-05
6.00556e-05
6.00669e-05
6.00797e-05
6.00941e-05
6.01111e-05
6.01335e-05
6.01684e-05
6.02235e-05
6.02996e-05
6.03884e-05
6.04816e-05
6.05957e-05
6.0771e-05
6.10644e-05
6.15105e-05
6.20912e-05
6.27737e-05