/*--------------------------------*- C++ -*----------------------------------*\
  =========                 |
  \\      /  F ield         | OpenFOAM: The Open Source CFD Toolbox
   \\    /   O peration     | Website:  https://openfoam.org
    \\  /    A nd           | Version:  dev
     \\/     M anipulation  |
\*---------------------------------------------------------------------------*/
FoamFile
{
    version     2.0;
    format      ascii;
    class       surfaceScalarField;
    location    "100";
    object      phi;
}
// * * * * * * * * * * * * * * * * * * * * * * * * * * * * * * * * * * * * * //

dimensions      [0 3 -1 0 0 0 0];

internalField   nonuniform List<scalar> 
58294
(
-0.473696
-0.000321197
-0.473666
-0.000281571
-0.430105
-0.000310703
-0.473642
-0.000253883
-0.430107
-0.000278924
-0.390346
-0.000331503
-0.473621
-0.000230465
-0.430106
-0.000255645
-0.390333
-0.000292233
-0.354283
-0.000321411
-0.473601
-0.000209924
-0.430103
-0.000233024
-0.390323
-0.000265194
-0.354286
-0.000289112
-0.321528
-0.000325928
-0.473582
-0.000191572
-0.4301
-0.0002133
-0.390314
-0.000242467
-0.354286
-0.00026503
-0.321526
-0.000290399
-0.291759
-0.000314683
-0.473562
-0.000174888
-0.430096
-0.000195606
-0.390304
-0.00022279
-0.354285
-0.000243131
-0.321526
-0.000265383
-0.291765
-0.000284406
-0.26476
-0.000308735
-0.473543
-0.000159675
-0.430091
-0.000179725
-0.390294
-0.000205461
-0.354283
-0.000224356
-0.321524
-0.00024443
-0.291769
-0.000261391
-0.264767
-0.000278095
-0.240235
-0.00029537
-0.473524
-0.000145683
-0.430085
-0.000165305
-0.390284
-0.000189936
-0.354281
-0.000207846
-0.321522
-0.000226394
-0.291772
-0.000241395
-0.264772
-0.000255689
-0.240244
-0.00026855
-0.217976
-0.000283756
-0.473506
-0.0001328
-0.430079
-0.000152144
-0.390273
-0.000175927
-0.354277
-0.000193122
-0.321519
-0.000210678
-0.291774
-0.000224485
-0.264777
-0.000237087
-0.240252
-0.000247782
-0.217987
-0.000257885
-0.197769
-0.000269026
-0.473488
-0.000120887
-0.430072
-0.000140054
-0.390262
-0.000163144
-0.354273
-0.000179889
-0.321515
-0.000196703
-0.291775
-0.000209664
-0.26478
-0.000221081
-0.240259
-0.000230286
-0.217996
-0.000238328
-0.197781
-0.000245925
-0.179432
-0.000255055
-0.47347
-0.000109875
-0.430064
-0.000128901
-0.390251
-0.000151426
-0.354269
-0.000167845
-0.321511
-0.000184122
-0.291775
-0.000196552
-0.264782
-0.00020731
-0.240264
-0.000215557
-0.218004
-0.00022226
-0.197792
-0.000227771
-0.179445
-0.000233269
-0.162787
-0.000239988
-0.473452
-9.96842e-05
-0.430055
-0.000118582
-0.390239
-0.000140596
-0.354263
-0.000156819
-0.321506
-0.000172696
-0.291774
-0.00018475
-0.264783
-0.000194985
-0.240269
-0.000202601
-0.218011
-0.000208462
-0.197801
-0.000212831
-0.179456
-0.000216406
-0.1628
-0.000220252
-0.147684
-0.000225493
-0.473436
-9.02604e-05
-0.430046
-0.000109013
-0.390227
-0.000130555
-0.354257
-0.000146638
-0.321501
-0.000162224
-0.291773
-0.00017399
-0.264784
-0.000183926
-0.240273
-0.000191201
-0.218017
-0.000196607
-0.197809
-0.000200268
-0.179466
-0.000202734
-0.162812
-0.000204571
-0.147697
-0.000207032
-0.13398
-0.000210783
-0.473419
-8.15623e-05
-0.430036
-0.000100125
-0.390215
-0.000121201
-0.354251
-0.000137184
-0.321495
-0.000152553
-0.291771
-0.000164132
-0.264784
-0.000173815
-0.240276
-0.000180803
-0.218022
-0.000185863
-0.197817
-0.000189169
-0.179475
-0.000191042
-0.162823
-0.000191931
-0.147709
-0.000192522
-0.133993
-0.000193908
-0.121543
-0.000196633
-0.473404
-7.35413e-05
-0.430026
-9.18725e-05
-0.390203
-0.000112457
-0.354244
-0.00012836
-0.321489
-0.000143566
-0.291768
-0.000155002
-0.264784
-0.000164488
-0.240278
-0.000171281
-0.218027
-0.000176197
-0.197823
-0.000179329
-0.179484
-0.000180961
-0.162832
-0.000181332
-0.14772
-0.000180953
-0.134006
-0.000180374
-0.121556
-0.000180864
-0.110261
-0.000182623
-0.473389
-6.61652e-05
-0.430015
-8.42036e-05
-0.390191
-0.000104281
-0.354236
-0.000120073
-0.321482
-0.000135156
-0.291765
-0.000146508
-0.264783
-0.000155843
-0.24028
-0.000162482
-0.218031
-0.000167211
-0.197829
-0.00017017
-0.179491
-0.000171704
-0.162841
-0.000171947
-0.147731
-0.000171122
-0.134017
-0.000169703
-0.121568
-0.000168356
-0.110273
-0.000168141
-0.100025
-0.000169223
-0.473375
-5.93996e-05
-0.430004
-7.70866e-05
-0.390178
-9.66088e-05
-0.354228
-0.000112283
-0.321475
-0.00012724
-0.291762
-0.000138552
-0.264782
-0.000147775
-0.240281
-0.000154249
-0.218034
-0.000158803
-0.197835
-0.000161652
-0.179498
-0.000163227
-0.16285
-0.000163512
-0.14774
-0.00016262
-0.134027
-0.000160799
-0.121579
-0.000158559
-0.110285
-0.000156451
-0.100038
-0.000155667
-0.0907396
-0.000156126
-0.473361
-5.32099e-05
-0.429993
-7.049e-05
-0.390166
-8.94192e-05
-0.35422
-0.000104916
-0.321467
-0.000119761
-0.291758
-0.000131044
-0.26478
-0.000140211
-0.240283
-0.000146547
-0.218038
-0.000150946
-0.19784
-0.000153669
-0.179505
-0.000155138
-0.162857
-0.000155488
-0.147749
-0.000154739
-0.134037
-0.000152931
-0.12159
-0.000150327
-0.110296
-0.000147413
-0.100049
-0.000144884
-0.0907516
-0.000143648
-0.0823166
-0.000143728
-0.473348
-4.75632e-05
-0.429982
-6.4383e-05
-0.390154
-8.2674e-05
-0.354211
-9.79544e-05
-0.32146
-0.000112653
-0.291754
-0.000123942
-0.264778
-0.000133074
-0.240284
-0.000139314
-0.218041
-0.000143528
-0.197844
-0.000146021
-0.179511
-0.000147358
-0.162865
-0.000147818
-0.147757
-0.000147352
-0.134046
-0.000145774
-0.1216
-0.000143213
-0.110307
-0.000139971
-0.10006
-0.000136544
-0.0907628
-0.00013358
-0.0823281
-0.000132011
-0.0746687
-0.000131724
-0.473337
-4.24266e-05
-0.429971
-5.87384e-05
-0.390142
-7.63576e-05
-0.354202
-9.13589e-05
-0.321452
-0.000105886
-0.29175
-0.000117162
-0.264776
-0.000126319
-0.240284
-0.000132489
-0.218043
-0.000136536
-0.197849
-0.000138813
-0.179517
-0.000139989
-0.162872
-0.0001404
-0.147765
-0.000140069
-0.134054
-0.000138838
-0.121609
-0.000136598
-0.110317
-0.000133432
-0.10007
-0.00012969
-0.0907735
-0.000125854
-0.0823389
-0.000122766
-0.0746798
-0.000120905
-0.0677392
-0.000120489
-0.473326
-3.77633e-05
-0.42996
-5.35311e-05
-0.39013
-7.04395e-05
-0.354194
-8.51165e-05
-0.321444
-9.94277e-05
-0.291745
-0.000110686
-0.264773
-0.000119877
-0.240285
-0.000126046
-0.218046
-0.000129937
-0.197854
-0.00013196
-0.179523
-0.000132835
-0.162878
-0.000133048
-0.147772
-0.000132826
-0.134062
-0.000131993
-0.121617
-0.000130252
-0.110326
-0.000127446
-0.10008
-0.000123786
-0.0907835
-0.000119681
-0.0823492
-0.000115568
-0.0746901
-0.000112327
-0.0677498
-0.000110284
-0.0614458
-0.000109679
-0.473315
-3.35502e-05
-0.429949
-4.87289e-05
-0.390119
-6.49108e-05
-0.354185
-7.9202e-05
-0.321435
-9.32582e-05
-0.29174
-0.000104465
-0.26477
-0.00011371
-0.240284
-0.000119913
-0.218048
-0.000123722
-0.197858
-0.000125472
-0.179528
-0.000126039
-0.162885
-0.000126007
-0.14778
-0.000125727
-0.13407
-0.000125109
-0.121626
-0.000123818
-0.110334
-0.000121585
-0.100089
-0.000118341
-0.0907931
-0.0001143
-0.082359
-0.000109917
-0.0747001
-0.000105591
-0.0677596
-0.000102475
-0.0614559
-0.000100205
-0.0557419
-9.96645e-05
-0.473306
-2.97448e-05
-0.429938
-4.43214e-05
-0.390107
-5.97384e-05
-0.354176
-7.36117e-05
-0.321427
-8.73594e-05
-0.291735
-9.84895e-05
-0.264767
-0.000107782
-0.240284
-0.000114067
-0.21805
-0.000117836
-0.197863
-0.000119368
-0.179534
-0.000119546
-0.162892
-0.000119108
-0.147787
-0.000118571
-0.134078
-0.000118037
-0.121634
-0.000117192
-0.110343
-0.00011562
-0.100098
-0.000113023
-0.090802
-0.000109401
-0.0823683
-0.000105069
-0.0747095
-0.000100541
-0.0677692
-9.61011e-05
-0.0614652
-9.30576e-05
-0.0557515
-9.06597e-05
-0.0505668
-9.00203e-05
-0.473297
-2.63202e-05
-0.429928
-4.02685e-05
-0.390097
-5.49295e-05
-0.354168
-6.83189e-05
-0.321419
-8.17267e-05
-0.291729
-9.27301e-05
-0.264763
-0.000102063
-0.240283
-0.000108454
-0.218052
-0.000112263
-0.197867
-0.000113621
-0.17954
-0.000113422
-0.162899
-0.000112514
-0.147794
-0.000111634
-0.134086
-0.000111003
-0.121641
-0.000110423
-0.11035
-0.000109399
-0.100106
-0.000107523
-0.0908105
-0.0001046
-0.082377
-0.000100697
-0.0747185
-9.61496e-05
-0.0677782
-9.15142e-05
-0.0614743
-8.69814e-05
-0.0557603
-8.42373e-05
-0.0505759
-8.15729e-05
-0.0458684
-8.11321e-05
-0.473288
-2.3249e-05
-0.429918
-3.65543e-05
-0.390087
-5.04432e-05
-0.354159
-6.33402e-05
-0.321411
-7.63402e-05
-0.291724
-8.71907e-05
-0.264759
-9.65318e-05
-0.240282
-0.000103052
-0.218054
-0.00010695
-0.197871
-0.000108218
-0.179546
-0.000107669
-0.162906
-0.000106241
-0.147802
-0.000104798
-0.134093
-0.000103835
-0.121649
-0.000103332
-0.110358
-0.000102792
-0.100114
-0.000101664
-0.0908184
-9.9578e-05
-0.0823853
-9.63774e-05
-0.0747269
-9.22433e-05
-0.0677868
-8.7561e-05
-0.0614829
-8.29257e-05
-0.0557689
-7.8361e-05
-0.0505841
-7.58601e-05
-0.045877
-7.30265e-05
-0.0416075
-7.25047e-05
-0.473281
-2.04951e-05
-0.429908
-3.31587e-05
-0.390077
-4.62773e-05
-0.354151
-5.86398e-05
-0.321403
-7.12212e-05
-0.291718
-8.18458e-05
-0.264755
-9.11781e-05
-0.240281
-9.78193e-05
-0.218055
-0.00010187
-0.197875
-0.000103134
-0.179552
-0.000102307
-0.162914
-0.000100327
-0.14781
-9.82583e-05
-0.134101
-9.68105e-05
-0.121657
-9.61791e-05
-0.110366
-9.59274e-05
-0.100121
-9.54472e-05
-0.090826
-9.41791e-05
-0.082393
-9.18693e-05
-0.0747349
-8.84528e-05
-0.067795
-8.4146e-05
-0.0614912
-7.93613e-05
-0.0557771
-7.47241e-05
-0.0505924
-7.01118e-05
-0.0458848
-6.8021e-05
-0.0416157
-6.4791e-05
-0.0377414
-6.46092e-05
-0.473274
-1.80352e-05
-0.429898
-3.00513e-05
-0.390068
-4.24159e-05
-0.354143
-5.4224e-05
-0.321396
-6.63396e-05
-0.291713
-7.67265e-05
-0.264751
-8.59818e-05
-0.24028
-9.27504e-05
-0.218056
-9.69753e-05
-0.197878
-9.8323e-05
-0.179558
-9.73124e-05
-0.162921
-9.48353e-05
-0.147818
-9.20641e-05
-0.134109
-8.99298e-05
-0.121664
-8.88494e-05
-0.110373
-8.86547e-05
-0.100128
-8.8703e-05
-0.0908332
-8.82848e-05
-0.0824003
-8.69138e-05
-0.0747424
-8.43994e-05
-0.0678027
-8.07704e-05
-0.061499
-7.63333e-05
-0.055785
-7.15122e-05
-0.0506002
-6.69503e-05
-0.0458926
-6.23209e-05
-0.041623
-6.05916e-05
-0.0377492
-5.70821e-05
-0.0342325
-5.68137e-05
-0.473268
-1.58414e-05
-0.429889
-2.72162e-05
-0.390059
-3.88358e-05
-0.354135
-5.00852e-05
-0.321388
-6.1707e-05
-0.291707
-7.18004e-05
-0.264747
-8.09678e-05
-0.240278
-8.7808e-05
-0.218056
-9.22486e-05
-0.197882
-9.37512e-05
-0.179564
-9.26743e-05
-0.162929
-8.9772e-05
-0.147827
-8.62734e-05
-0.134118
-8.33003e-05
-0.121673
-8.16021e-05
-0.110381
-8.12323e-05
-0.100135
-8.16026e-05
-0.0908401
-8.18965e-05
-0.0824072
-8.14818e-05
-0.0747494
-7.9942e-05
-0.0678098
-7.72539e-05
-0.0615064
-7.34737e-05
-0.0557925
-6.89198e-05
-0.0506077
-6.40527e-05
-0.0459
-5.95376e-05
-0.0416305
-5.48557e-05
-0.0377561
-5.3582e-05
-0.03424
-4.95439e-05
-0.0310487
-4.97536e-05
-0.473262
-1.38889e-05
-0.42988
-2.4632e-05
-0.390051
-3.55259e-05
-0.354128
-4.62046e-05
-0.321381
-5.73241e-05
-0.291702
-6.70879e-05
-0.264743
-7.61081e-05
-0.240276
-8.30212e-05
-0.218056
-8.76445e-05
-0.197884
-8.93743e-05
-0.179569
-8.83334e-05
-0.162936
-8.51313e-05
-0.147836
-8.09482e-05
-0.134127
-7.70918e-05
-0.121681
-7.45559e-05
-0.110389
-7.36576e-05
-0.100143
-7.40317e-05
-0.0908468
-7.48943e-05
-0.0824137
-7.53959e-05
-0.074756
-7.49561e-05
-0.0678166
-7.32738e-05
-0.0615132
-7.03566e-05
-0.0557995
-6.64067e-05
-0.0506148
-6.17706e-05
-0.0459072
-5.69122e-05
-0.0416376
-5.24764e-05
-0.0377633
-4.7752e-05
-0.0342466
-4.69541e-05
-0.0310559
-4.25275e-05
-0.0281602
-4.26624e-05
-0.473256
-1.21557e-05
-0.429872
-2.22786e-05
-0.390043
-3.24713e-05
-0.354121
-4.25786e-05
-0.321374
-5.31753e-05
-0.291697
-6.25926e-05
-0.264738
-7.14215e-05
-0.240273
-7.83509e-05
-0.218056
-8.31808e-05
-0.197887
-8.51511e-05
-0.179574
-8.42679e-05
-0.162944
-8.08926e-05
-0.147845
-7.61215e-05
-0.134137
-7.1334e-05
-0.121691
-6.77697e-05
-0.110397
-6.6079e-05
-0.10015
-6.62292e-05
-0.0908534
-6.74404e-05
-0.08242
-6.87341e-05
-0.0747621
-6.93238e-05
-0.0678228
-6.87779e-05
-0.0615197
-6.68676e-05
-0.0558061
-6.38164e-05
-0.0506216
-5.97391e-05
-0.045914
-5.49948e-05
-0.0416444
-5.01082e-05
-0.03777
-4.57312e-05
-0.0342534
-4.09437e-05
-0.031062
-4.06289e-05
-0.028167
-3.55755e-05
-0.0255388
-3.6459e-05
-0.473252
-1.06153e-05
-0.429864
-2.01407e-05
-0.390035
-2.96545e-05
-0.354114
-3.91977e-05
-0.321367
-4.92646e-05
-0.291692
-5.83043e-05
-0.264734
-6.69179e-05
-0.240271
-7.38203e-05
-0.218056
-7.88119e-05
-0.197889
-8.10723e-05
-0.179579
-8.04011e-05
-0.162951
-7.70092e-05
-0.147854
-7.17805e-05
-0.134147
-6.61169e-05
-0.1217
-6.14569e-05
-0.110406
-5.87787e-05
-0.100158
-5.83177e-05
-0.0908602
-5.95076e-05
-0.082426
-6.13784e-05
-0.0747679
-6.29712e-05
-0.0678286
-6.35795e-05
-0.0615256
-6.28984e-05
-0.0558123
-6.07953e-05
-0.0506279
-5.74748e-05
-0.0459205
-5.32433e-05
-0.041651
-4.84242e-05
-0.0377766
-4.35618e-05
-0.0342599
-3.92522e-05
-0.0310686
-3.44117e-05
-0.0281728
-3.46908e-05
-0.0255453
-2.92048e-05
-0.0231608
-3.01038e-05
-0.473247
-9.25188e-06
-0.429856
-1.81921e-05
-0.390028
-2.70656e-05
-0.354108
-3.60489e-05
-0.321361
-4.55865e-05
-0.291687
-5.42314e-05
-0.26473
-6.25873e-05
-0.240268
-6.94348e-05
-0.218055
-7.45536e-05
-0.197891
-7.70925e-05
-0.179583
-7.67314e-05
-0.162958
-7.34284e-05
-0.147863
-6.79144e-05
-0.134157
-6.14642e-05
-0.121711
-5.56656e-05
-0.110416
-5.17705e-05
-0.100166
-5.03766e-05
-0.0908672
-5.12407e-05
-0.082432
-5.34844e-05
-0.0747734
-5.5944e-05
-0.067834
-5.76917e-05
-0.0615311
-5.81887e-05
-0.0558179
-5.73013e-05
-0.0506338
-5.49101e-05
-0.0459266
-5.14817e-05
-0.0416572
-4.71059e-05
-0.0377829
-4.21588e-05
-0.0342662
-3.72838e-05
-0.0310749
-3.30599e-05
-0.0281792
-2.81858e-05
-0.0255508
-2.89943e-05
-0.0231669
-2.29669e-05
-0.0210021
-2.48884e-05
-0.473243
-8.04625e-06
-0.429849
-1.64241e-05
-0.390022
-2.46776e-05
-0.354102
-3.31275e-05
-0.321355
-4.21333e-05
-0.291682
-5.03743e-05
-0.264725
-5.84445e-05
-0.240266
-6.51888e-05
-0.218054
-7.04086e-05
-0.197892
-7.32066e-05
-0.179587
-7.31794e-05
-0.162965
-7.01091e-05
-0.147872
-6.44572e-05
-0.134168
-5.73934e-05
-0.121722
-5.04966e-05
-0.110426
-4.52995e-05
-0.100175
-4.27483e-05
-0.0908747
-4.29258e-05
-0.0824382
-4.51252e-05
-0.0747787
-4.81796e-05
-0.0678389
-5.09902e-05
-0.061536
-5.27644e-05
-0.0558231
-5.30918e-05
-0.0506392
-5.19798e-05
-0.0459323
-4.93435e-05
-0.041663
-4.55996e-05
-0.0377889
-4.10648e-05
-0.0342723
-3.60374e-05
-0.031081
-3.12037e-05
-0.0281852
-2.70481e-05
-0.0255569
-2.21815e-05
-0.023172
-2.37363e-05
-0.0210078
-1.73614e-05
-0.0190447
-1.94624e-05
-0.47324
-6.98136e-06
-0.429843
-1.48195e-05
-0.390016
-2.24867e-05
-0.354096
-3.04073e-05
-0.321349
-3.89047e-05
-0.291677
-4.67284e-05
-0.264721
-5.44924e-05
-0.240263
-6.10966e-05
-0.218053
-6.63677e-05
-0.197893
-6.94163e-05
-0.179591
-6.97417e-05
-0.162971
-6.69832e-05
-0.147881
-6.13812e-05
-0.134178
-5.38571e-05
-0.121733
-4.59791e-05
-0.110437
-3.94197e-05
-0.100185
-3.54656e-05
-0.0908827
-3.45859e-05
-0.0824447
-3.63861e-05
-0.0747841
-3.97747e-05
-0.0678436
-4.35233e-05
-0.0615405
-4.65384e-05
-0.0558277
-4.819e-05
-0.0506441
-4.82387e-05
-0.0459374
-4.68446e-05
-0.0416685
-4.38565e-05
-0.0377946
-4.00213e-05
-0.0342782
-3.53098e-05
-0.0310869
-3.01516e-05
-0.0281911
-2.53606e-05
-0.0255626
-2.13728e-05
-0.0231778
-1.65758e-05
-0.0210125
-1.87226e-05
-0.0190498
-1.20651e-05
-0.0172689
-1.5561e-05
-0.473237
-6.04328e-06
-0.429836
-1.33644e-05
-0.39001
-2.04765e-05
-0.35409
-2.78897e-05
-0.321344
-3.58759e-05
-0.291673
-4.32988e-05
-0.264717
-5.07315e-05
-0.240261
-5.71664e-05
-0.218051
-6.2446e-05
-0.197894
-6.56998e-05
-0.179594
-6.63912e-05
-0.162976
-6.40066e-05
-0.147889
-5.85899e-05
-0.134189
-5.08354e-05
-0.121745
-4.2131e-05
-0.110449
-3.42532e-05
-0.100195
-2.87801e-05
-0.0908916
-2.65884e-05
-0.0824517
-2.76085e-05
-0.0747896
-3.09475e-05
-0.0678481
-3.53052e-05
-0.0615446
-3.94347e-05
-0.0558319
-4.24489e-05
-0.0506485
-4.38824e-05
-0.0459421
-4.36154e-05
-0.0416735
-4.19352e-05
-0.0377999
-3.8643e-05
-0.0342837
-3.44564e-05
-0.0310926
-2.95865e-05
-0.0281968
-2.43818e-05
-0.0255683
-1.97069e-05
-0.0231832
-1.58505e-05
-0.0210179
-1.1199e-05
-0.0190541
-1.42675e-05
-0.0172734
-7.47876e-06
-0.015659
-1.13112e-05
-0.473234
-5.21486e-06
-0.42983
-1.20478e-05
-0.390005
-1.86344e-05
-0.354085
-2.55601e-05
-0.321338
-3.3053e-05
-0.291669
-4.00616e-05
-0.264713
-4.71706e-05
-0.240258
-5.33999e-05
-0.21805
-5.86517e-05
-0.197894
-6.20727e-05
-0.179597
-6.31075e-05
-0.162982
-6.11529e-05
-0.147897
-5.60407e-05
-0.134199
-4.82318e-05
-0.121757
-3.8919e-05
-0.110461
-2.98264e-05
-0.100207
-2.2769e-05
-0.0909013
-1.89853e-05
-0.0824594
-1.88319e-05
-0.0747954
-2.17184e-05
-0.0678527
-2.6395e-05
-0.0615485
-3.14671e-05
-0.0558355
-3.58228e-05
-0.0506523
-3.86864e-05
-0.0459463
-3.97817e-05
-0.0416781
-3.9109e-05
-0.0378048
-3.71002e-05
-0.0342889
-3.33955e-05
-0.031098
-2.91508e-05
-0.0282024
-2.40944e-05
-0.0255739
-1.88226e-05
-0.0231887
-1.43225e-05
-0.0210231
-1.0792e-05
-0.0190591
-6.39509e-06
-0.0172771
-1.01986e-05
-0.0156627
-3.55853e-06
-0.0141992
-8.89344e-06
-0.473231
-4.48575e-06
-0.429825
-1.08513e-05
-0.39
-1.69508e-05
-0.354081
-2.34077e-05
-0.321334
-3.04235e-05
-0.291665
-3.70279e-05
-0.26471
-4.37885e-05
-0.240255
-4.98117e-05
-0.218048
-5.4989e-05
-0.197894
-5.85369e-05
-0.179599
-5.98864e-05
-0.162986
-5.83704e-05
-0.147904
-5.36695e-05
-0.134209
-4.59901e-05
-0.121769
-3.6292e-05
-0.110474
-2.6174e-05
-0.100219
-1.75515e-05
-0.090912
-1.2043e-05
-0.0824679
-1.04246e-05
-0.0748018
-1.24523e-05
-0.0678574
-1.70523e-05
-0.0615522
-2.27763e-05
-0.0558388
-2.82736e-05
-0.0506555
-3.25801e-05
-0.0459498
-3.51524e-05
-0.0416821
-3.58506e-05
-0.0378092
-3.47608e-05
-0.0342937
-3.24323e-05
-0.0311031
-2.83766e-05
-0.0282076
-2.38012e-05
-0.0255793
-1.86343e-05
-0.0231941
-1.34101e-05
-0.0210283
-9.15841e-06
-0.0190639
-5.90433e-06
-0.0172816
-1.91479e-06
-0.0156659
-6.79589e-06
-0.0142023
-1.71022e-07
-0.0128757
-5.69246e-06
-0.473229
-3.84699e-06
-0.429819
-9.76754e-06
-0.389995
-1.54052e-05
-0.354076
-2.14255e-05
-0.321329
-2.79787e-05
-0.291661
-3.41873e-05
-0.264706
-4.06006e-05
-0.240253
-4.63813e-05
-0.218047
-5.14745e-05
-0.197894
-5.50992e-05
-0.179601
-5.67313e-05
-0.162991
-5.56529e-05
-0.147911
-5.14217e-05
-0.134219
-4.403e-05
-0.121781
-3.41638e-05
-0.110487
-2.32405e-05
-0.100232
-1.31797e-05
-0.0909237
-5.85548e-06
-0.0824775
-2.46796e-06
-0.074809
-3.21037e-06
-0.0678625
-7.31204e-06
-0.0615559
-1.33512e-05
-0.0558417
-1.98207e-05
-0.0506583
-2.54957e-05
-0.0459528
-2.96139e-05
-0.0416855
-3.17687e-05
-0.0378131
-3.19859e-05
-0.034298
-3.04069e-05
-0.0311078
-2.77371e-05
-0.0282128
-2.32488e-05
-0.0255845
-1.86904e-05
-0.0231994
-1.33931e-05
-0.0210335
-8.25526e-06
-0.0190688
-4.39993e-06
-0.017286
-1.71481e-06
-0.0156698
1.77669e-06
-0.0142048
-3.91679e-06
-0.0128782
2.38261e-06
-0.0116758
-4.23243e-06
-0.473226
-3.2833e-06
-0.429814
-8.79177e-06
-0.389991
-1.39918e-05
-0.354072
-1.95916e-05
-0.321325
-2.57139e-05
-0.291657
-3.15333e-05
-0.264703
-3.75994e-05
-0.24025
-4.31296e-05
-0.218045
-4.80909e-05
-0.197894
-5.17745e-05
-0.179602
-5.36383e-05
-0.162994
-5.29809e-05
-0.147918
-4.92571e-05
-0.134228
-4.22763e-05
-0.121792
-3.24674e-05
-0.1105
-2.09871e-05
-0.100246
-9.66929e-06
-0.0909363
-5.47552e-07
-0.0824881
4.77895e-06
-0.074817
5.64143e-06
-0.0678682
2.46315e-06
-0.0615598
-3.47964e-06
-0.0558445
-1.06107e-05
-0.0506607
-1.7499e-05
-0.0459553
-2.30876e-05
-0.0416883
-2.68289e-05
-0.0378164
-2.84912e-05
-0.0343019
-2.81977e-05
-0.0311122
-2.6148e-05
-0.0282174
-2.31687e-05
-0.0255896
-1.83311e-05
-0.0232045
-1.35404e-05
-0.0210386
-8.25987e-06
-0.0190737
-3.35738e-06
-0.0172905
3.18458e-08
-0.0156736
2.22399e-06
-0.014208
5.05687e-06
-0.0128801
-1.65148e-06
-0.0116778
5.01613e-06
-0.0105875
-1.26974e-06
-0.473224
-2.79152e-06
-0.42981
-7.90233e-06
-0.389987
-1.2708e-05
-0.354068
-1.79022e-05
-0.321321
-2.36061e-05
-0.291654
-2.90635e-05
-0.2647
-3.47806e-05
-0.240248
-4.00512e-05
-0.218043
-4.48621e-05
-0.197893
-4.85489e-05
-0.179603
-5.06251e-05
-0.162998
-5.03506e-05
-0.147924
-4.71507e-05
-0.134236
-4.06676e-05
-0.121803
-3.10927e-05
-0.110513
-1.93157e-05
-0.10026
-6.98231e-06
-0.0909498
3.82032e-06
-0.0824998
1.11752e-05
-0.0748262
1.39629e-05
-0.0678747
1.21769e-05
-0.061564
6.77679e-06
-0.0558473
-6.66396e-07
-0.0506628
-8.54197e-06
-0.0459572
-1.5567e-05
-0.0416905
-2.08857e-05
-0.0378191
-2.41335e-05
-0.0343052
-2.5208e-05
-0.0311161
-2.43566e-05
-0.0282218
-2.17905e-05
-0.0255942
-1.85133e-05
-0.0232095
-1.32907e-05
-0.0210435
-8.66522e-06
-0.0190786
-3.40082e-06
-0.017295
1.15732e-06
-0.0156776
3.83289e-06
-0.0142112
5.18986e-06
-0.0128826
7.44884e-06
-0.0116793
1.04714e-07
-0.0105895
6.9323e-06
-0.00959945
1.29178e-07
-0.473223
-2.35873e-06
-0.429806
-7.10488e-06
-0.389984
-1.15263e-05
-0.354064
-1.63576e-05
-0.321317
-2.16539e-05
-0.291651
-2.67546e-05
-0.264696
-3.21451e-05
-0.240245
-3.71454e-05
-0.218041
-4.17862e-05
-0.197893
-4.54472e-05
-0.179604
-4.76735e-05
-0.163001
-4.77656e-05
-0.147929
-4.50744e-05
-0.134244
-3.91547e-05
-0.121814
-2.99725e-05
-0.110526
-1.81409e-05
-0.100274
-5.06831e-06
-0.090964
7.22537e-06
-0.0825126
1.66148e-05
-0.0748365
2.15504e-05
-0.0678822
2.15008e-05
-0.0615689
1.70713e-05
-0.0558503
9.72871e-06
-0.0506647
1.18261e-06
-0.0459588
-7.07542e-06
-0.0416922
-1.39641e-05
-0.0378213
-1.88081e-05
-0.0343079
-2.14659e-05
-0.0311194
-2.19325e-05
-0.0282257
-2.05289e-05
-0.0255986
-1.7506e-05
-0.0232141
-1.39958e-05
-0.0210485
-8.50346e-06
-0.0190833
-3.85217e-06
-0.0172996
1.19534e-06
-0.0156817
5.24855e-06
-0.0142146
7.182e-06
-0.0128852
7.8751e-06
-0.0116813
9.50438e-06
-0.0105906
1.74761e-06
-0.00960152
9.85435e-06
-0.00870118
3.66265e-06
-0.473221
-1.98017e-06
-0.429801
-6.37905e-06
-0.38998
-1.04585e-05
-0.354061
-1.49255e-05
-0.321313
-1.98602e-05
-0.291648
-2.46072e-05
-0.264693
-2.96697e-05
-0.240243
-3.44155e-05
-0.21804
-3.88654e-05
-0.197892
-4.24716e-05
-0.179605
-4.48119e-05
-0.163003
-4.52107e-05
-0.147934
-4.30275e-05
-0.134252
-3.76928e-05
-0.121824
-2.902e-05
-0.110539
-1.73513e-05
-0.100288
-3.82148e-06
-0.0909788
9.708e-06
-0.0825263
2.10176e-05
-0.0748481
2.81857e-05
-0.0678908
3.02053e-05
-0.0615747
2.72455e-05
-0.0558537
2.04925e-05
-0.0506666
1.16314e-05
-0.04596
2.37151e-06
-0.0416933
-5.96078e-06
-0.0378228
-1.25014e-05
-0.03431
-1.67598e-05
-0.0311221
-1.87351e-05
-0.0282291
-1.85366e-05
-0.0256026
-1.65776e-05
-0.0232185
-1.30884e-05
-0.021053
-9.41374e-06
-0.0190881
-3.68095e-06
-0.0173041
6.05699e-07
-0.0156859
5.37957e-06
-0.0142181
8.72866e-06
-0.0128879
9.65464e-06
-0.0116831
9.51775e-06
-0.0105922
1.09996e-05
-0.00960262
3.1914e-06
-0.00870359
1.21163e-05
-0.00788521
5.75073e-06
-0.47322
-1.64979e-06
-0.429798
-5.72383e-06
-0.389977
-9.47758e-06
-0.354058
-1.36237e-05
-0.32131
-1.81884e-05
-0.291645
-2.26271e-05
-0.264691
-2.73576e-05
-0.240241
-3.18397e-05
-0.218038
-3.61064e-05
-0.197891
-3.96262e-05
-0.179605
-4.20417e-05
-0.163005
-4.27067e-05
-0.147938
-4.09818e-05
-0.134259
-3.62603e-05
-0.121834
-2.81784e-05
-0.110551
-1.68613e-05
-0.100303
-3.1507e-06
-0.090994
1.13201e-05
-0.082541
2.43632e-05
-0.0748608
3.37897e-05
-0.0679007
3.8137e-05
-0.0615815
3.70546e-05
-0.0558578
3.13116e-05
-0.0506687
2.25445e-05
-0.045961
1.25912e-05
-0.041694
3.01044e-06
-0.0378237
-5.10278e-06
-0.0343115
-1.11041e-05
-0.0311243
-1.46383e-05
-0.028232
-1.59287e-05
-0.0256061
-1.50976e-05
-0.0232225
-1.26335e-05
-0.0210574
-8.78896e-06
-0.0190926
-5.03357e-06
-0.0173087
8.07392e-07
-0.01569
4.81438e-06
-0.0142218
9.05661e-06
-0.0128907
1.16068e-05
-0.0116852
1.1722e-05
-0.0105936
1.12105e-05
-0.00960409
1.25985e-05
-0.00870486
5.16638e-06
-0.00788801
1.59466e-05
-0.00714192
9.7374e-06
-0.473219
-1.36074e-06
-0.429794
-5.13367e-06
-0.389974
-8.58476e-06
-0.354055
-1.24198e-05
-0.321307
-1.66621e-05
-0.291643
-2.07742e-05
-0.264688
-2.52172e-05
-0.240239
-2.94237e-05
-0.218036
-3.34893e-05
-0.197891
-3.69218e-05
-0.179605
-3.93714e-05
-0.163007
-4.02583e-05
-0.147941
-3.89556e-05
-0.134265
-3.482e-05
-0.121843
-2.73933e-05
-0.110563
-1.65708e-05
-0.100317
-2.93025e-06
-0.0910093
1.21729e-05
-0.0825564
2.66796e-05
-0.0748748
3.8266e-05
-0.067912
4.5046e-05
-0.0615895
4.61593e-05
-0.0558627
4.19515e-05
-0.0506712
3.37876e-05
-0.045962
2.35232e-05
-0.0416943
1.29147e-05
-0.037824
3.34526e-06
-0.0343123
-4.32454e-06
-0.0311258
-9.6581e-06
-0.0282342
-1.24274e-05
-0.0256091
-1.29628e-05
-0.0232262
-1.14898e-05
-0.0210615
-8.57124e-06
-0.019097
-4.4046e-06
-0.017313
-6.77359e-07
-0.0156944
5.16432e-06
-0.0142255
8.51002e-06
-0.0128938
1.21239e-05
-0.0116874
1.37128e-05
-0.0105951
1.29264e-05
-0.00960528
1.21517e-05
-0.00870643
1.41687e-05
-0.00788957
7.03923e-06
-0.00714504
1.88178e-05
-0.00646657
1.21403e-05
-0.473217
-1.10896e-06
-0.429791
-4.59901e-06
-0.389972
-7.77424e-06
-0.354052
-1.13173e-05
-0.321304
-1.52438e-05
-0.29164
-1.90773e-05
-0.264686
-2.32063e-05
-0.240237
-2.71789e-05
-0.218035
-3.10225e-05
-0.19789
-3.43401e-05
-0.179605
-3.68127e-05
-0.163008
-3.78723e-05
-0.147945
-3.69463e-05
-0.13427
-3.33751e-05
-0.121851
-2.66194e-05
-0.110574
-1.64141e-05
-0.10033
-3.06114e-06
-0.0910246
1.23689e-05
-0.0825722
2.80316e-05
-0.0748897
4.15891e-05
-0.0679246
5.0851e-05
-0.0615989
5.44482e-05
-0.0558687
5.22174e-05
-0.0506743
4.51303e-05
-0.0459631
3.49367e-05
-0.0416944
2.36028e-05
-0.0378239
1.27531e-05
-0.0343125
3.50284e-06
-0.0311266
-3.52881e-06
-0.0282358
-8.08689e-06
-0.0256115
-1.00141e-05
-0.0232293
-9.88592e-06
-0.0210652
-7.85934e-06
-0.019101
-4.5803e-06
-0.0173173
-2.34672e-07
-0.0156984
3.35882e-06
-0.0142295
9.03163e-06
-0.0128969
1.16867e-05
-0.0116898
1.45145e-05
-0.0105967
1.53285e-05
-0.00960643
1.41536e-05
-0.00870763
1.36545e-05
-0.00789139
1.60802e-05
-0.00714689
9.77885e-06
-0.00646982
2.31093e-05
-0.00585238
1.5633e-05
-0.473217
-8.90006e-07
-0.429788
-4.11719e-06
-0.389969
-7.03384e-06
-0.35405
-1.03107e-05
-0.321302
-1.39396e-05
-0.291638
-1.74948e-05
-0.264683
-2.13585e-05
-0.240235
-2.50615e-05
-0.218033
-2.87206e-05
-0.197889
-3.18931e-05
-0.179605
-3.43517e-05
-0.16301
-3.55641e-05
-0.147948
-3.49622e-05
-0.134275
-3.19172e-05
-0.121858
-2.58341e-05
-0.110584
-1.63133e-05
-0.100343
-3.43111e-06
-0.0910397
1.20436e-05
-0.0825884
2.85284e-05
-0.0749054
4.37807e-05
-0.0679384
5.54304e-05
-0.0616097
6.16592e-05
-0.055876
6.1742e-05
-0.0506784
5.62275e-05
-0.0459647
4.66477e-05
-0.0416945
3.49811e-05
-0.0378234
2.30835e-05
-0.0343121
1.23446e-05
-0.0311268
3.64233e-06
-0.0282368
-2.61816e-06
-0.0256133
-6.34794e-06
-0.0232319
-7.46302e-06
-0.0210684
-6.63486e-06
-0.0191048
-4.09508e-06
-0.0173213
-5.41996e-07
-0.0157026
3.91278e-06
-0.0142332
7.17803e-06
-0.0129004
1.2487e-05
-0.0116923
1.41856e-05
-0.0105985
1.62367e-05
-0.0096076
1.63257e-05
-0.00870869
1.48818e-05
-0.00789279
1.48656e-05
-0.00714898
1.83369e-05
-0.00647186
1.20448e-05
-0.00585557
2.58983e-05
-0.00529435
1.78673e-05
-0.473216
-6.99114e-07
-0.429785
-3.68355e-06
-0.389967
-6.36138e-06
-0.354047
-9.38564e-06
-0.321299
-1.2744e-05
-0.291636
-1.6035e-05
-0.264681
-1.96291e-05
-0.240233
-2.31099e-05
-0.218032
-2.65397e-05
-0.197888
-2.95982e-05
-0.179605
-3.20022e-05
-0.163011
-3.33209e-05
-0.14795
-3.30156e-05
-0.13428
-3.04482e-05
-0.121865
-2.50214e-05
-0.110593
-1.62306e-05
-0.100355
-3.95723e-06
-0.0910545
1.13114e-05
-0.0826047
2.82854e-05
-0.0749218
4.49181e-05
-0.0679534
5.87717e-05
-0.0616219
6.76807e-05
-0.0558847
7.04077e-05
-0.0506835
6.69421e-05
-0.0459669
5.84638e-05
-0.0416948
4.68822e-05
-0.0378227
3.42103e-05
-0.0343112
2.21566e-05
-0.0311263
1.18446e-05
-0.0282371
3.88921e-06
-0.0256144
-1.49988e-06
-0.0232339
-4.37917e-06
-0.0210713
-4.67112e-06
-0.0191082
-3.31814e-06
-0.0173251
-3.93741e-07
-0.0157065
3.30857e-06
-0.0142371
7.68655e-06
-0.0129037
1.04937e-05
-0.0116951
1.52723e-05
-0.0106003
1.60129e-05
-0.00960888
1.7451e-05
-0.00870967
1.73474e-05
-0.00789399
1.62339e-05
-0.00715067
1.69107e-05
-0.00647417
2.06567e-05
-0.00585765
1.51993e-05
-0.0052973
2.9772e-05
-0.00478772
2.01177e-05
-0.473215
-5.33975e-07
-0.429783
-3.28974e-06
-0.389965
-5.75157e-06
-0.354045
-8.54083e-06
-0.321297
-1.16407e-05
-0.291634
-1.4693e-05
-0.264679
-1.80287e-05
-0.240231
-2.12772e-05
-0.21803
-2.45222e-05
-0.197887
-2.74127e-05
-0.179605
-2.97852e-05
-0.163012
-3.11601e-05
-0.147952
-3.10983e-05
-0.134284
-2.89777e-05
-0.121872
-2.41697e-05
-0.110602
-1.61235e-05
-0.100367
-4.55732e-06
-0.0910687
1.02929e-05
-0.0826208
2.74493e-05
-0.0749387
4.50981e-05
-0.0679694
6.08829e-05
-0.0616356
7.24031e-05
-0.0558949
7.79269e-05
-0.05069
7.68932e-05
-0.04597
7.00235e-05
-0.0416954
5.90316e-05
-0.0378218
4.60109e-05
-0.0343099
3.28706e-05
-0.0311252
2.10417e-05
-0.0282367
1.13909e-05
-0.0256149
4.309e-06
-0.0232353
-1.6384e-07
-0.0210735
-2.21191e-06
-0.0191112
-1.77755e-06
-0.0173285
1.09169e-07
-0.0157103
3.34966e-06
-0.0142409
7.06544e-06
-0.0129073
1.12182e-05
-0.0116979
1.33173e-05
-0.0106025
1.74203e-05
-0.00961009
1.72729e-05
-0.00871067
1.83089e-05
-0.00789501
1.81309e-05
-0.00715211
1.73611e-05
-0.00647609
1.88105e-05
-0.00586001
2.34218e-05
-0.00529927
1.72784e-05
-0.0047903
3.18972e-05
-0.00432823
2.18172e-05
-0.473214
-3.89945e-07
-0.42978
-2.93737e-06
-0.389963
-5.19308e-06
-0.354043
-7.77063e-06
-0.321295
-1.06294e-05
-0.291632
-1.3451e-05
-0.264677
-1.65531e-05
-0.24023
-1.95761e-05
-0.218029
-2.26203e-05
-0.197886
-2.53824e-05
-0.179605
-2.76599e-05
-0.163012
-2.91041e-05
-0.147954
-2.92268e-05
-0.134288
-2.74974e-05
-0.121877
-2.32831e-05
-0.110611
-1.59715e-05
-0.100378
-5.17686e-06
-0.0910824
9.08754e-06
-0.0826366
2.61361e-05
-0.0749557
4.44666e-05
-0.0679862
6.18456e-05
-0.0616505
7.57973e-05
-0.0559067
8.41907e-05
-0.050698
8.59237e-05
-0.0459743
8.11844e-05
-0.0416966
7.12995e-05
-0.0378212
5.83399e-05
-0.0343083
4.44095e-05
-0.0311236
3.12127e-05
-0.0282356
1.99237e-05
-0.0256146
1.11321e-05
-0.023236
5.01208e-06
-0.0210751
1.46458e-06
-0.0191136
1.87779e-07
-0.0173316
1.306e-06
-0.0157137
3.50175e-06
-0.0142445
6.89437e-06
-0.0129107
1.0448e-05
-0.0117009
1.41519e-05
-0.0106046
1.54821e-05
-0.00961168
1.89464e-05
-0.0087115
1.81372e-05
-0.00789596
1.91978e-05
-0.00715335