/*--------------------------------*- C++ -*----------------------------------*\
  =========                 |
  \\      /  F ield         | OpenFOAM: The Open Source CFD Toolbox
   \\    /   O peration     | Website:  https://openfoam.org
    \\  /    A nd           | Version:  dev
     \\/     M anipulation  |
\*---------------------------------------------------------------------------*/
FoamFile
{
    version     2.0;
    format      ascii;
    class       volVectorField;
    location    "100";
    object      U;
}
// * * * * * * * * * * * * * * * * * * * * * * * * * * * * * * * * * * * * * //

dimensions      [0 1 -1 0 0 0 0];

internalField   nonuniform List<vector> 
29380
(
(51.0995 -0.0691409 0)
(51.0944 -0.0665793 0)
(51.1251 -0.0151674 0)
(51.0922 -0.0655335 0)
(51.126 -0.0146691 0)
(51.1329 -0.0591065 0)
(51.0897 -0.0642286 0)
(51.1258 -0.0147122 0)
(51.13 -0.0568106 0)
(51.1386 -0.0268562 0)
(51.0875 -0.0629859 0)
(51.1256 -0.0149587 0)
(51.1289 -0.0558378 0)
(51.1396 -0.0261884 0)
(51.1445 -0.0512016 0)
(51.0854 -0.0617122 0)
(51.1253 -0.0153473 0)
(51.1276 -0.0548092 0)
(51.1396 -0.0262169 0)
(51.1439 -0.0494269 0)
(51.1408 -0.0324425 0)
(51.0833 -0.0604041 0)
(51.1248 -0.0158298 0)
(51.1264 -0.0539886 0)
(51.1396 -0.0265014 0)
(51.1438 -0.0487647 0)
(51.1426 -0.0318312 0)
(51.1408 -0.0448131 0)
(51.0812 -0.0590482 0)
(51.1243 -0.0163656 0)
(51.1251 -0.0532778 0)
(51.1394 -0.0269743 0)
(51.1436 -0.0482266 0)
(51.1431 -0.0318854 0)
(51.1424 -0.043597 0)
(51.1337 -0.0338091 0)
(51.0792 -0.0576322 0)
(51.1237 -0.0169281 0)
(51.1238 -0.0526636 0)
(51.1392 -0.0275933 0)
(51.1434 -0.0479517 0)
(51.1438 -0.032234 0)
(51.1433 -0.0432652 0)
(51.1368 -0.033373 0)
(51.1278 -0.039255 0)
(51.0772 -0.0561505 0)
(51.123 -0.0174948 0)
(51.1225 -0.0521175 0)
(51.1388 -0.0283095 0)
(51.143 -0.0478613 0)
(51.1442 -0.0328063 0)
(51.1443 -0.0431691 0)
(51.1382 -0.0335039 0)
(51.1311 -0.0385167 0)
(51.1178 -0.0326167 0)
(51.0752 -0.0545984 0)
(51.1222 -0.0180463 0)
(51.1211 -0.0516238 0)
(51.1383 -0.0291016 0)
(51.1425 -0.0479208 0)
(51.1445 -0.0335566 0)
(51.145 -0.0433475 0)
(51.1399 -0.0339519 0)
(51.133 -0.0384595 0)
(51.1222 -0.0323589 0)
(51.1073 -0.0342895 0)
(51.0732 -0.0529762 0)
(51.1213 -0.0185677 0)
(51.1196 -0.0511654 0)
(51.1376 -0.0299408 0)
(51.1418 -0.0481051 0)
(51.1445 -0.0344451 0)
(51.1456 -0.0437338 0)
(51.1412 -0.0346339 0)
(51.1352 -0.0386873 0)
(51.1245 -0.0325734 0)
(51.1121 -0.0338903 0)
(51.0945 -0.0300743 0)
(51.0713 -0.0512864 0)
(51.1203 -0.0190458 0)
(51.1181 -0.0507305 0)
(51.1369 -0.0308119 0)
(51.1411 -0.0483943 0)
(51.1445 -0.0354393 0)
(51.1459 -0.0442834 0)
(51.1423 -0.0355097 0)
(51.137 -0.0391744 0)
(51.1273 -0.0331091 0)
(51.1149 -0.0340161 0)
(51.1001 -0.0299434 0)
(51.0807 -0.0298343 0)
(51.0695 -0.0495343 0)
(51.1193 -0.019471 0)
(51.1165 -0.0503081 0)
(51.1361 -0.0316941 0)
(51.1403 -0.0487701 0)
(51.1443 -0.0365227 0)
(51.1461 -0.0449727 0)
(51.1431 -0.0365333 0)
(51.1385 -0.0398597 0)
(51.1295 -0.0338738 0)
(51.1182 -0.034443 0)
(51.1033 -0.0302087 0)
(51.0868 -0.0296396 0)
(51.0655 -0.0269322 0)
(51.0677 -0.0477273 0)
(51.1181 -0.019836 0)
(51.115 -0.0498893 0)
(51.1352 -0.0325743 0)
(51.1394 -0.0492187 0)
(51.1441 -0.0376788 0)
(51.1462 -0.0457759 0)
(51.1439 -0.0376716 0)
(51.1398 -0.0406991 0)
(51.1316 -0.0348209 0)
(51.1209 -0.0351072 0)
(51.107 -0.03079 0)
(51.0904 -0.0298576 0)
(51.0722 -0.0268714 0)
(51.0495 -0.0258188 0)
(51.066 -0.0458738 0)
(51.1169 -0.0201355 0)
(51.1134 -0.0494673 0)
(51.1342 -0.0334371 0)
(51.1384 -0.0497237 0)
(51.1437 -0.0388936 0)
(51.1462 -0.0466819 0)
(51.1445 -0.0389092 0)
(51.141 -0.0416622 0)
(51.1334 -0.0358993 0)
(51.1234 -0.035948 0)
(51.1102 -0.0315872 0)
(51.0946 -0.0303801 0)
(51.0763 -0.0271449 0)
(51.0568 -0.0257256 0)
(51.0327 -0.0236099 0)
(51.0643 -0.0439835 0)
(51.1157 -0.0203676 0)
(51.1117 -0.049036 0)
(51.1331 -0.0342713 0)
(51.1374 -0.0502717 0)
(51.1432 -0.0401548 0)
(51.1461 -0.0476791 0)
(51.1449 -0.0402289 0)
(51.142 -0.0427236 0)
(51.135 -0.0370761 0)
(51.1257 -0.0369147 0)
(51.1132 -0.0325479 0)
(51.0983 -0.031118 0)
(51.0809 -0.0277296 0)
(51.0612 -0.0259645 0)
(51.0406 -0.0235719 0)
(51.0155 -0.0221674 0)
(51.0627 -0.0420665 0)
(51.1144 -0.0205306 0)
(51.1101 -0.0485918 0)
(51.132 -0.0350656 0)
(51.1363 -0.0508476 0)
(51.1427 -0.0414483 0)
(51.1459 -0.0487566 0)
(51.1453 -0.0416242 0)
(51.1429 -0.043873 0)
(51.1364 -0.0383286 0)
(51.1278 -0.0379676 0)
(51.1159 -0.0336135 0)
(51.1017 -0.0320107 0)
(51.085 -0.0285147 0)
(51.0663 -0.0265076 0)
(51.0454 -0.0238178 0)
(51.0239 -0.0221063 0)
(50.998 -0.0203375 0)
(51.0612 -0.0401329 0)
(51.1131 -0.0206265 0)
(51.1085 -0.0481311 0)
(51.1308 -0.0358115 0)
(51.1351 -0.0514381 0)
(51.1421 -0.042761 0)
(51.1457 -0.0499042 0)
(51.1456 -0.0430888 0)
(51.1437 -0.0451028 0)
(51.1378 -0.0396423 0)
(51.1297 -0.0390793 0)
(51.1184 -0.0347421 0)
(51.1048 -0.0330005 0)
(51.0889 -0.0294451 0)
(51.0708 -0.0272487 0)
(51.0509 -0.0243682 0)
(51.0291 -0.0223197 0)
(51.007 -0.0202888 0)
(50.9804 -0.0188399 0)
(51.0598 -0.0381927 0)
(51.1118 -0.0206565 0)
(51.1069 -0.0476523 0)
(51.1296 -0.0365015 0)
(51.1339 -0.05203 0)
(51.1414 -0.0440785 0)
(51.1453 -0.0511093 0)
(51.1459 -0.0446185 0)
(51.1444 -0.0464081 0)
(51.1391 -0.0410091 0)
(51.1315 -0.0402344 0)
(51.1208 -0.0358985 0)
(51.1078 -0.0340359 0)
(51.0924 -0.0304568 0)
(51.0751 -0.0281278 0)
(51.0558 -0.0251094 0)
(51.0351 -0.0228282 0)
(51.0125 -0.020486 0)
(50.99 -0.0187689 0)
(50.9628 -0.0172505 0)
(51.0585 -0.0362553 0)
(51.1105 -0.020625 0)
(51.1053 -0.0471542 0)
(51.1284 -0.03713 0)
(51.1327 -0.0526114 0)
(51.1406 -0.045387 0)
(51.1449 -0.0523589 0)
(51.146 -0.0462056 0)
(51.1451 -0.047789 0)
(51.1403 -0.0424323 0)
(51.1332 -0.0414266 0)
(51.123 -0.0370613 0)
(51.1105 -0.0350764 0)
(51.0958 -0.0314965 0)
(51.079 -0.0290824 0)
(51.0606 -0.025982 0)
(51.0404 -0.0235288 0)
(51.019 -0.0209681 0)
(50.9958 -0.0189354 0)
(50.9728 -0.0171705 0)
(50.945 -0.0158288 0)
(51.0573 -0.0343295 0)
(51.1091 -0.020535 0)
(51.1037 -0.0466366 0)
(51.1271 -0.0376933 0)
(51.1314 -0.0531713 0)
(51.1398 -0.0466727 0)
(51.1444 -0.0536381 0)
(51.1461 -0.0478426 0)
(51.1458 -0.0492463 0)
(51.1415 -0.0439111 0)
(51.1349 -0.0426509 0)
(51.1252 -0.0382227 0)
(51.1132 -0.0360942 0)
(51.0989 -0.032513 0)
(51.0828 -0.0300507 0)
(51.065 -0.0269214 0)
(51.0456 -0.0243546 0)
(51.0247 -0.0216445 0)
(51.0027 -0.0193667 0)
(50.979 -0.0173152 0)
(50.9555 -0.0157246 0)
(50.9271 -0.0144274 0)
(51.0561 -0.0324232 0)
(51.1078 -0.0203921 0)
(51.1022 -0.0460997 0)
(51.1258 -0.0381886 0)
(51.1301 -0.0537005 0)
(51.1389 -0.0479228 0)
(51.1438 -0.0549311 0)
(51.1462 -0.0495177 0)
(51.1463 -0.0507762 0)
(51.1427 -0.0454545 0)
(51.1366 -0.043919 0)
(51.1273 -0.0393816 0)
(51.1157 -0.0370722 0)
(51.1019 -0.033471 0)
(51.0863 -0.0309784 0)
(51.0691 -0.0278658 0)
(51.0504 -0.0252469 0)
(51.0303 -0.0224407 0)
(51.0088 -0.0200024 0)
(50.9863 -0.0176968 0)
(50.9621 -0.0158444 0)
(50.9381 -0.0143032 0)
(50.9088 -0.0131346 0)
(51.055 -0.0305435 0)
(51.1065 -0.0202 0)
(51.1007 -0.0455445 0)
(51.1246 -0.0386153 0)
(51.1288 -0.0541911 0)
(51.138 -0.0491256 0)
(51.1432 -0.0562225 0)
(51.1461 -0.0512178 0)
(51.1469 -0.0523749 0)
(51.1439 -0.0470689 0)
(51.1383 -0.0452354 0)
(51.1295 -0.0405386 0)
(51.1183 -0.0380048 0)
(51.1049 -0.0343477 0)
(51.0897 -0.0318195 0)
(51.073 -0.0287499 0)
(51.0549 -0.0261369 0)
(51.0355 -0.0233022 0)
(51.0148 -0.0207513 0)
(50.9928 -0.0182981 0)
(50.9697 -0.0161623 0)
(50.9449 -0.014405 0)
(50.9203 -0.0129847 0)
(50.89 -0.0118947 0)
(51.054 -0.0286964 0)
(51.1053 -0.0199648 0)
(51.0993 -0.0449717 0)
(51.1233 -0.0389728 0)
(51.1275 -0.0546367 0)
(51.1371 -0.0502707 0)
(51.1426 -0.0574966 0)
(51.146 -0.0529276 0)
(51.1473 -0.0540324 0)
(51.145 -0.048758 0)
(51.14 -0.0466182 0)
(51.1317 -0.0417125 0)
(51.1208 -0.0388947 0)
(51.1078 -0.0351253 0)
(51.093 -0.0325403 0)
(51.0767 -0.0295221 0)
(51.0592 -0.0269583 0)
(51.0404 -0.0241602 0)
(51.0204 -0.0215699 0)
(50.9991 -0.0190053 0)
(50.9766 -0.0167237 0)
(50.9529 -0.0146544 0)
(50.9274 -0.0130693 0)
(50.9019 -0.0117202 0)
(50.8704 -0.0107392 0)
(51.0531 -0.026887 0)
(51.104 -0.0196903 0)
(51.098 -0.0443829 0)
(51.1221 -0.0392628 0)
(51.1262 -0.0550325 0)
(51.1362 -0.0513499 0)
(51.1419 -0.0587393 0)
(51.1458 -0.0546312 0)
(51.1477 -0.0557364 0)
(51.1461 -0.050522 0)
(51.1417 -0.0480811 0)
(51.1339 -0.0429178 0)
(51.1234 -0.0397493 0)
(51.1107 -0.0357996 0)
(51.0962 -0.0331139 0)
(51.0803 -0.0301418 0)
(51.0632 -0.0276496 0)
(51.045 -0.0249416 0)
(51.0256 -0.0223846 0)
(51.0051 -0.0197869 0)
(50.9833 -0.0173811 0)
(50.9602 -0.0151789 0)
(50.9357 -0.0132405 0)
(50.9093 -0.0117964 0)
(50.8828 -0.0105384 0)
(50.8497 -0.00963889 0)
(51.0522 -0.0251197 0)
(51.1028 -0.0193822 0)
(51.0966 -0.0437793 0)
(51.1209 -0.0394866 0)
(51.125 -0.0553751 0)
(51.1352 -0.052356 0)
(51.1411 -0.0599371 0)
(51.1456 -0.0563121 0)
(51.148 -0.0574721 0)
(51.1471 -0.0523555 0)
(51.1434 -0.0496341 0)
(51.1362 -0.0441816 0)
(51.1261 -0.0405965 0)
(51.1137 -0.0363789 0)
(51.0994 -0.0335226 0)
(51.0838 -0.0305653 0)
(51.0671 -0.0281621 0)
(51.0493 -0.0255819 0)
(51.0306 -0.0231245 0)
(51.0107 -0.0205691 0)
(50.9896 -0.0181214 0)
(50.9672 -0.0157877 0)
(50.9434 -0.0137271 0)
(50.9181 -0.0118815 0)
(50.8905 -0.010609 0)
(50.8626 -0.00941231 0)
(50.8275 -0.00860314 0)
(51.0514 -0.0233976 0)
(51.1017 -0.0190441 0)
(51.0954 -0.0431623 0)
(51.1197 -0.0396471 0)
(51.1237 -0.0556623 0)
(51.1342 -0.0532842 0)
(51.1403 -0.0610792 0)
(51.1453 -0.0579548 0)
(51.1483 -0.0592215 0)
(51.1481 -0.0542484 0)
(51.1451 -0.0512841 0)
(51.1385 -0.0455273 0)
(51.1289 -0.0414628 0)
(51.1168 -0.0368806 0)
(51.1027 -0.0337646 0)
(51.0873 -0.0307643 0)
(51.0708 -0.0284426 0)
(51.0535 -0.026027 0)
(51.0352 -0.023717 0)
(51.0159 -0.0212781 0)
(50.9955 -0.0188668 0)
(50.9739 -0.0164887 0)
(50.9508 -0.0142836 0)
(50.9261 -0.012332 0)
(50.8996 -0.0105997 0)
(50.8707 -0.0094874 0)
(50.841 -0.00835191 0)
(50.8036 -0.00761258 0)
(51.0507 -0.0217231 0)
(51.1006 -0.018681 0)
(51.0942 -0.0425335 0)
(51.1186 -0.0397467 0)
(51.1225 -0.0558928 0)
(51.1333 -0.0541311 0)
(51.1395 -0.0621558 0)
(51.1449 -0.0595445 0)
(51.1484 -0.0609676 0)
(51.149 -0.0561871 0)
(51.1468 -0.0530294 0)
(51.1409 -0.046974 0)
(51.1319 -0.0423829 0)
(51.12 -0.0373398 0)
(51.106 -0.0338543 0)
(51.0907 -0.0307203 0)
(51.0745 -0.0284442 0)
(51.0574 -0.0262082 0)
(51.0396 -0.0241052 0)
(51.0209 -0.0218417 0)
(51.0011 -0.0195474 0)
(50.9801 -0.0172028 0)
(50.9578 -0.0149433 0)
(50.9338 -0.0128352 0)
(50.908 -0.0110142 0)
(50.8802 -0.00937465 0)
(50.8494 -0.00843484 0)
(50.8177 -0.00733804 0)
(50.7775 -0.00667276 0)
(51.0501 -0.020098 0)
(51.0995 -0.0182958 0)
(51.0931 -0.0418941 0)
(51.1175 -0.039789 0)
(51.1214 -0.0560666 0)
(51.1323 -0.0548945 0)
(51.1387 -0.06316 0)
(51.1445 -0.0610685 0)
(51.1485 -0.062691 0)
(51.1498 -0.0581536 0)
(51.1484 -0.054864 0)
(51.1433 -0.048536 0)
(51.1349 -0.0433919 0)
(51.1234 -0.0377978 0)
(51.1096 -0.03382 0)
(51.0943 -0.0304335 0)
(51.0781 -0.0281338 0)
(51.0613 -0.0260698 0)
(51.0438 -0.0242123 0)
(51.0256 -0.0222002 0)
(51.0064 -0.0200863 0)
(50.986 -0.0178592 0)
(50.9644 -0.0156244 0)
(50.9412 -0.0134535 0)
(50.9162 -0.011461 0)
(50.889 -0.00975265 0)
(50.8594 -0.00821277 0)
(50.8265 -0.00744056 0)
(50.7922 -0.00637708 0)
(50.7491 -0.00577053 0)
(51.0495 -0.018523 0)
(51.0985 -0.0178928 0)
(51.092 -0.0412456 0)
(51.1164 -0.0397771 0)
(51.1202 -0.0561843 0)
(51.1314 -0.055574 0)
(51.1378 -0.0640857 0)
(51.144 -0.062516 0)
(51.1485 -0.0643757 0)
(51.1505 -0.0601295 0)
(51.1499 -0.0567745 0)
(51.1457 -0.0502187 0)
(51.138 -0.0445205 0)
(51.127 -0.0382984 0)
(51.1134 -0.0337024 0)
(51.0981 -0.0299254 0)
(51.0818 -0.0274915 0)
(51.065 -0.0255555 0)
(51.0477 -0.0239675 0)
(51.0299 -0.0222658 0)
(51.0113 -0.0204257 0)
(50.9916 -0.0183834 0)
(50.9706 -0.0162589 0)
(50.9482 -0.0141041 0)
(50.9239 -0.0120354 0)
(50.8976 -0.0101409 0)
(50.8687 -0.00855454 0)
(50.837 -0.00710101 0)
(50.8015 -0.00650278 0)
(50.7644 -0.00545486 0)
(50.7181 -0.00491421 0)
(51.0489 -0.0169987 0)
(51.0975 -0.0174743 0)
(51.091 -0.0405891 0)
(51.1154 -0.0397148 0)
(51.1191 -0.0562468 0)
(51.1305 -0.05617 0)
(51.137 -0.0649297 0)
(51.1435 -0.0638781 0)
(51.1484 -0.0660051 0)
(51.1511 -0.0620935 0)
(51.1513 -0.0587439 0)
(51.148 -0.0520202 0)
(51.1411 -0.0457917 0)
(51.1307 -0.0388908 0)
(51.1174 -0.0335598 0)
(51.1021 -0.0292353 0)
(51.0856 -0.0265207 0)
(51.0687 -0.0246268 0)
(51.0515 -0.023301 0)
(51.034 -0.0219643 0)
(51.0158 -0.0204727 0)
(50.9967 -0.0187207 0)
(50.9764 -0.0167698 0)
(50.9547 -0.0147178 0)
(50.9313 -0.0126546 0)
(50.9058 -0.0106688 0)
(50.8777 -0.00888054 0)
(50.8468 -0.00740465 0)
(50.8125 -0.00604261 0)
(50.7741 -0.00561506 0)
(50.734 -0.00457838 0)
(50.6846 -0.00409749 0)
(51.0484 -0.0155244 0)
(51.0966 -0.0170434 0)
(51.0901 -0.0399258 0)
(51.1145 -0.0396053 0)
(51.1181 -0.0562561 0)
(51.1296 -0.0566837 0)
(51.1362 -0.0656895 0)
(51.143 -0.0651482 0)
(51.1483 -0.0675662 0)
(51.1516 -0.0640275 0)
(51.1526 -0.0607512 0)
(51.1502 -0.0539303 0)
(51.1443 -0.0472198 0)
(51.1346 -0.0396189 0)
(51.1216 -0.0334475 0)
(51.1064 -0.0284128 0)
(51.0897 -0.0252502 0)
(51.0726 -0.0232658 0)
(51.0552 -0.0221484 0)
(51.0378 -0.0212051 0)
(51.02 -0.0201462 0)
(51.0015 -0.018768 0)
(50.9819 -0.0171108 0)
(50.9609 -0.0152196 0)
(50.9382 -0.0132489 0)
(50.9136 -0.0112562 0)
(50.8864 -0.00935737 0)
(50.8563 -0.00766475 0)
(50.8229 -0.00630715 0)
(50.7857 -0.00502854 0)
(50.7442 -0.0047761 0)
(50.7009 -0.00374279 0)
(50.6489 -0.00333436 0)
(51.048 -0.0140997 0)
(51.0957 -0.0166022 0)
(51.0892 -0.0392568 0)
(51.1136 -0.0394524 0)
(51.1171 -0.0562139 0)
(51.1287 -0.0571174 0)
(51.1353 -0.0663645 0)
(51.1425 -0.0663219 0)
(51.1481 -0.069047 0)
(51.152 -0.0659114 0)
(51.1538 -0.0627742 0)
(51.1524 -0.0559324 0)
(51.1474 -0.0488085 0)
(51.1386 -0.0405181 0)
(51.1261 -0.0334318 0)
(51.111 -0.0275322 0)
(51.0941 -0.0237289 0)
(51.0766 -0.0214792 0)
(51.059 -0.0204678 0)
(51.0415 -0.0199066 0)
(51.0238 -0.0193458 0)
(51.0058 -0.0184518 0)
(50.9868 -0.0171716 0)
(50.9666 -0.015573 0)
(50.9447 -0.0137398 0)
(50.9209 -0.0118304 0)
(50.8947 -0.00991127 0)
(50.8656 -0.00808548 0)
(50.833 -0.00649621 0)
(50.7967 -0.0052501 0)
(50.7562 -0.00406515 0)
(50.7114 -0.00398468 0)
(50.6653 -0.0029578 0)
(50.6115 -0.00262253 0)
(51.0476 -0.0127232 0)
(51.0949 -0.0161528 0)
(51.0884 -0.0385829 0)
(51.1127 -0.0392591 0)
(51.1162 -0.0561229 0)
(51.1279 -0.0574738 0)
(51.1345 -0.0669548 0)
(51.1419 -0.0673959 0)
(51.1478 -0.0704393 0)
(51.1523 -0.0677301 0)
(51.1548 -0.06479 0)
(51.1544 -0.0580051 0)
(51.1505 -0.0505509 0)
(51.1427 -0.0416123 0)
(51.1309 -0.0335708 0)
(51.116 -0.0266639 0)
(51.0989 -0.0220182 0)
(51.081 -0.0193006 0)
(51.0629 -0.0182433 0)
(51.0451 -0.0180007 0)
(51.0275 -0.017967 0)
(51.0097 -0.0176548 0)
(50.9913 -0.0168851 0)
(50.9718 -0.0156537 0)
(50.9508 -0.0141073 0)
(50.9279 -0.0123098 0)
(50.9026 -0.0104647 0)
(50.8744 -0.00860175 0)
(50.8429 -0.00685393 0)
(50.8075 -0.00536517 0)
(50.7678 -0.00424329 0)
(50.724 -0.00314832 0)
(50.676 -0.00324575 0)
(50.6275 -0.00222307 0)
(50.5731 -0.00198773 0)
(51.0472 -0.0113933 0)
(51.0941 -0.0156967 0)
(51.0876 -0.037905 0)
(51.1119 -0.0390287 0)
(51.1153 -0.0559853 0)
(51.1271 -0.057756 0)
(51.1337 -0.0674622 0)
(51.1413 -0.0683694 0)
(51.1475 -0.0717354 0)
(51.1525 -0.0694685 0)
(51.1558 -0.0667764 0)
(51.1563 -0.0601233 0)
(51.1535 -0.0524328 0)
(51.1467 -0.042914 0)
(51.1357 -0.0339148 0)
(51.1212 -0.0258923 0)
(51.1041 -0.020207 0)
(51.0857 -0.0167874 0)
(51.067 -0.0154814 0)
(51.0488 -0.015442 0)
(51.0309 -0.0159207 0)
(51.0133 -0.0162619 0)
(50.9953 -0.0161279 0)
(50.9765 -0.0154159 0)
(50.9563 -0.0142119 0)
(50.9343 -0.0126955 0)
(50.91 -0.0109281 0)
(50.8828 -0.00913237 0)
(50.8524 -0.0073289 0)
(50.818 -0.00565265 0)
(50.7793 -0.00427818 0)
(50.7362 -0.00327861 0)
(50.6889 -0.00229144 0)
(50.6383 -0.00256018 0)
(50.5883 -0.00155305 0)
(50.5349 -0.00142198 0)
(51.0469 -0.0101082 0)
(51.0934 -0.0152353 0)
(51.0869 -0.0372238 0)
(51.1112 -0.0387642 0)
(51.1144 -0.0558036 0)
(51.1264 -0.0579674 0)
(51.133 -0.0678883 0)
(51.1408 -0.0692423 0)
(51.1472 -0.0729315 0)
(51.1526 -0.0711157 0)
(51.1566 -0.0687134 0)
(51.158 -0.0622615 0)
(51.1563 -0.0544311 0)
(51.1507 -0.0444208 0)
(51.1407 -0.0344998 0)
(51.1268 -0.0252934 0)
(51.1098 -0.018384 0)
(51.0909 -0.014014 0)
(51.0716 -0.0122196 0)
(51.0526 -0.0122097 0)
(51.0343 -0.0131356 0)
(51.0165 -0.0141604 0)
(50.9988 -0.0147698 0)
(50.9806 -0.0147235 0)
(50.9612 -0.01403 0)
(50.9402 -0.0128212 0)
(50.9169 -0.0113316 0)
(50.8908 -0.00957524 0)
(50.8614 -0.00783398 0)
(50.8282 -0.00607938 0)
(50.7905 -0.00448646 0)
(50.7482 -0.0032302 0)
(50.7016 -0.00237299 0)
(50.6513 -0.00149237 0)
(50.5988 -0.00194453 0)
(50.5488 -0.000951228 0)
(50.4977 -0.000945245 0)
(51.0466 -0.00886592 0)
(51.0927 -0.0147697 0)
(51.0862 -0.0365398 0)
(51.1105 -0.0384685 0)
(51.1136 -0.0555805 0)
(51.1257 -0.0581113 0)
(51.1322 -0.0682361 0)
(51.1402 -0.0700161 0)
(51.1468 -0.0740244 0)
(51.1527 -0.0726619 0)
(51.1572 -0.0705828 0)
(51.1596 -0.0643933 0)
(51.159 -0.0565195 0)
(51.1546 -0.0461217 0)
(51.1458 -0.0353477 0)
(51.1327 -0.0249323 0)
(51.1158 -0.0166525 0)
(51.0967 -0.0110854 0)
(51.0766 -0.00852377 0)
(51.0567 -0.00830989 0)
(51.0377 -0.00955459 0)
(51.0196 -0.0112541 0)
(51.002 -0.012684 0)
(50.9842 -0.0134437 0)
(50.9655 -0.013421 0)
(50.9454 -0.0127019 0)
(50.9232 -0.0114757 0)
(50.8982 -0.00999736 0)
(50.87 -0.00824857 0)
(50.8379 -0.00655586 0)
(50.8015 -0.00485908 0)
(50.7602 -0.00334995 0)
(50.7141 -0.00223432 0)
(50.6641 -0.00152159 0)
(50.6115 -0.000776382 0)
(50.5584 -0.00139636 0)
(50.51 -0.000423796 0)
(50.4617 -0.000521622 0)
(51.0463 -0.00766379 0)
(51.092 -0.0143007 0)
(51.0856 -0.0358537 0)
(51.1098 -0.0381441 0)
(51.1129 -0.0553185 0)
(51.125 -0.0581916 0)
(51.1315 -0.0685083 0)
(51.1396 -0.0706929 0)
(51.1464 -0.0750135 0)
(51.1527 -0.0741015 0)
(51.1578 -0.0723698 0)
(51.161 -0.0664944 0)
(51.1615 -0.058668 0)
(51.1584 -0.0479929 0)
(51.1508 -0.0364628 0)
(51.1387 -0.0248612 0)
(51.1223 -0.0151079 0)
(51.103 -0.00810978 0)
(51.0821 -0.00448115 0)
(51.0613 -0.00378368 0)
(51.0414 -0.00515287 0)
(51.0227 -0.00745656 0)
(51.0048 -0.00975247 0)
(50.9872 -0.0114331 0)
(50.9692 -0.0122462 0)
(50.95 -0.0121841 0)
(50.9288 -0.0114175 0)
(50.9051 -0.010151 0)
(50.8781 -0.00868643 0)
(50.8473 -0.00693345 0)
(50.812 -0.00530064 0)
(50.7718 -0.0036586 0)
(50.7267 -0.00225713 0)
(50.6771 -0.00129353 0)
(50.6243 -0.000755393 0)
(50.5705 -0.000138812 0)
(50.5185 -0.000938547 0)
(50.4726 4.40066e-05 0)
(50.4257 -0.000162279 0)
(51.046 -0.00649997 0)
(51.0914 -0.0138288 0)
(51.085 -0.0351656 0)
(51.1092 -0.0377936 0)
(51.1122 -0.0550202 0)
(51.1243 -0.058212 0)
(51.1309 -0.0687083 0)
(51.1391 -0.0712754 0)
(51.146 -0.075899 0)
(51.1526 -0.0754296 0)
(51.1583 -0.0740619 0)
(51.1622 -0.0685423 0)
(51.1638 -0.0608462 0)
(51.162 -0.0500078 0)
(51.1557 -0.0378379 0)
(51.1448 -0.0251118 0)
(51.1291 -0.0138347 0)
(51.1098 -0.00521162 0)
(51.0884 -0.000215225 0)
(51.0665 0.00129426 0)
(51.0454 6.47475e-05 0)
(51.0258 -0.00270323 0)
(51.0074 -0.00585655 0)
(50.9898 -0.008557 0)
(50.9722 -0.0103553 0)
(50.9538 -0.0111347 0)
(50.9337 -0.0109957 0)
(50.9113 -0.0101517 0)
(50.8856 -0.00884186 0)
(50.8561 -0.00738489 0)
(50.8221 -0.00563129 0)
(50.7832 -0.00406128 0)
(50.7391 -0.00249405 0)
(50.6901 -0.00120951 0)
(50.6373 -0.000432101 0)
(50.5828 -6.77093e-05 0)
(50.5293 0.000388265 0)
(50.4797 -0.000551088 0)
(50.4362 0.00045925 0)
(50.387 0.000198458 0)
(51.0458 -0.00537114 0)
(51.0909 -0.0133548 0)
(51.0845 -0.034476 0)
(51.1086 -0.0374189 0)
(51.1115 -0.0546883 0)
(51.1237 -0.058176 0)
(51.1302 -0.0688395 0)
(51.1385 -0.071767 0)
(51.1456 -0.0766821 0)
(51.1525 -0.0766445 0)
(51.1586 -0.0756501 0)
(51.1634 -0.0705181 0)
(51.1659 -0.0630244 0)
(51.1653 -0.0521307 0)
(51.1605 -0.0394505 0)
(51.1509 -0.0256994 0)
(51.1362 -0.0129021 0)
(51.1172 -0.00250972 0)
(51.0953 0.00414257 0)
(51.0724 0.00681959 0)
(51.05 0.006053 0)
(51.0291 0.00303497 0)
(51.0099 -0.000903574 0)
(50.992 -0.0046745 0)
(50.9746 -0.00760205 0)
(50.9569 -0.0093944 0)
(50.9378 -0.0100795 0)
(50.9166 -0.00982168 0)
(50.8924 -0.00889354 0)
(50.8643 -0.0075294 0)
(50.8318 -0.00609108 0)
(50.7942 -0.00433441 0)
(50.7512 -0.00284949 0)
(50.7031 -0.00136339 0)
(50.6506 -0.000233049 0)
(50.5953 0.000346893 0)
(50.5406 0.000500999 0)
(50.4891 0.000825407 0)
(50.442 -0.000253143 0)
(50.3987 0.000864682 0)
(50.3412 0.000549847 0)
(51.0456 -0.00427544 0)
(51.0903 -0.0128786 0)
(51.084 -0.0337854 0)
(51.108 -0.0370223 0)
(51.1109 -0.0543247 0)
(51.1232 -0.0580873 0)
(51.1296 -0.0689057 0)
(51.138 -0.0721714 0)
(51.1452 -0.0773652 0)
(51.1524 -0.0777446 0)
(51.1589 -0.0771273 0)
(51.1643 -0.0724056 0)
(51.1678 -0.0651753 0)
(51.1685 -0.0543288 0)
(51.1651 -0.041272 0)
(51.157 -0.0266205 0)
(51.1434 -0.0123569 0)
(51.125 -0.000110149 0)
(51.1029 0.00844734 0)
(51.079 0.0126542 0)
(51.0552 0.0127283 0)
(51.0328 0.00975678 0)
(51.0125 0.00518074 0)
(50.994 0.000341019 0)
(50.9766 -0.00382049 0)
(50.9593 -0.00681176 0)
(50.9411 -0.00850949 0)
(50.9211 -0.00904166 0)
(50.8983 -0.00865011 0)
(50.8719 -0.00762414 0)
(50.8408 -0.00621335 0)
(50.8047 -0.00479855 0)
(50.7631 -0.00305494 0)
(50.7159 -0.00166704 0)
(50.6639 -0.000294224 0)
(50.6084 0.000671069 0)
(50.5522 0.0010076 0)
(50.4989 0.000966926 0)
(50.4501 0.00114761 0)
(50.4038 1.80631e-05 0)
(50.3559 0.00128192 0)
(50.2833 0.000962503 0)
(51.0454 -0.00320977 0)
(51.0898 -0.0124006 0)
(51.0835 -0.0330933 0)
(51.1075 -0.0366056 0)
(51.1103 -0.0539319 0)
(51.1226 -0.0579492 0)
(51.129 -0.0689104 0)
(51.1375 -0.0724927 0)
(51.1448 -0.0779515 0)
(51.1522 -0.0787314 0)
(51.1591 -0.078489 0)
(51.1651 -0.074192 0)
(51.1696 -0.0672748 0)
(51.1714 -0.056565 0)
(51.1695 -0.043264 0)
(51.1629 -0.0278568 0)
(51.1507 -0.0122258 0)
(51.1332 0.00189753 0)
(51.1111 0.0125537 0)
(51.0865 0.0186384 0)
(51.0612 0.0199694 0)
(51.0372 0.0174149 0)
(51.0154 0.0124355 0)
(50.9959 0.00659544 0)
(50.978 0.00113419 0)
(50.961 -0.00320428 0)
(50.9435 -0.00613241 0)
(50.9247 -0.007649 0)
(50.9033 -0.00800075 0)
(50.8785 -0.0074548 0)
(50.8492 -0.00633765 0)
(50.8147 -0.00488409 0)
(50.7745 -0.00351757 0)
(50.7286 -0.00179227 0)
(50.6772 -0.000534996 0)
(50.6218 0.000713325 0)
(50.5646 0.00145754 0)
(50.5091 0.00154899 0)
(50.4583 0.00129694 0)
(50.4112 0.00141626 0)
(50.3614 0.000261226 0)
(50.3025 0.00176586 0)
(50.2087 0.00139115 0)
(51.0453 -0.00217156 0)
(51.0894 -0.0119208 0)
(51.0831 -0.0324004 0)
(51.107 -0.0361701 0)
(51.1098 -0.0535123 0)
(51.1221 -0.0577651 0)
(51.1285 -0.0688572 0)
(51.1371 -0.0727351 0)
(51.1444 -0.0784442 0)
(51.152 -0.0796063 0)
(51.1593 -0.0797327 0)
(51.1659 -0.0758669 0)
(51.1711 -0.0693016 0)
(51.1741 -0.0588081 0)
(51.1737 -0.0453884 0)
(51.1687 -0.0293777 0)
(51.158 -0.0125133 0)
(51.1416 0.00344806 0)
(51.12 0.0163304 0)
(51.0948 0.0246067 0)
(51.0682 0.0276238 0)
(51.0424 0.0259165 0)
(51.0187 0.0208633 0)
(50.9978 0.0141793 0)
(50.9792 0.00740569 0)
(50.9621 0.00159304 0)
(50.9452 -0.00274717 0)
(50.9273 -0.00549502 0)
(50.9074 -0.00678534 0)
(50.8842 -0.00692759 0)
(50.8567 -0.0062292 0)
(50.824 -0.00502583 0)
(50.7854 -0.00355344 0)
(50.7408 -0.00224711 0)
(50.6905 -0.000570657 0)
(50.6353 0.00054189 0)
(50.5774 0.00161239 0)
(50.5201 0.00212693 0)
(50.4667 0.00194178 0)
(50.4181 0.00154713 0)
(50.3692 0.00163129 0)
(50.3096 0.000565075 0)
(50.2332 0.00229686 0)
(50.1144 0.00189122 0)
(51.0451 -0.00115809 0)
(51.0889 -0.011439 0)
(51.0827 -0.0317064 0)
(51.1066 -0.0357177 0)
(51.1093 -0.0530674 0)
(51.1216 -0.0575384 0)
(51.128 -0.0687494 0)
(51.1366 -0.0729023 0)
(51.144 -0.0788476 0)
(51.1518 -0.0803725 0)
(51.1594 -0.0808581 0)
(51.1665 -0.0774237 0)
(51.1725 -0.071238 0)
(51.1766 -0.061026 0)
(51.1775 -0.0476023 0)
(51.1742 -0.0311437 0)
(51.1653 -0.0132052 0)
(51.1502 0.00450081 0)
(51.1293 0.0196642 0)
(51.1039 0.0303846 0)
(51.0761 0.0355038 0)
(51.0485 0.0351244 0)
(51.0228 0.0304154 0)
(51.0001 0.0231412 0)
(50.9803 0.0151193 0)
(50.9627 0.00774315 0)
(50.946 0.00181363 0)
(50.929 -0.00236618 0)
(50.9104 -0.00486433 0)
(50.8888 -0.00588053 0)
(50.8632 -0.00580883 0)
(50.8324 -0.00495992 0)
(50.7957 -0.00369702 0)
(50.7527 -0.00222088 0)
(50.7035 -0.00101157 0)
(50.6489 0.000609014 0)
(50.5905 0.00152299 0)
(50.5318 0.00239923 0)
(50.476 0.00263415 0)
(50.425 0.00222108 0)
(50.3758 0.00171324 0)
(50.3191 0.0018842 0)
(50.2428 0.000898351 0)
(50.1439 0.00292031 0)
(49.9991 0.00237378 0)
(51.045 -0.000166806 0)
(51.0885 -0.010955 0)
(51.0823 -0.0310114 0)
(51.1062 -0.0352493 0)
(51.1088 -0.0525996 0)
(51.1212 -0.0572714 0)
(51.1275 -0.0685908 0)
(51.1362 -0.0729987 0)
(51.1436 -0.0791651 0)
(51.1516 -0.0810331 0)
(51.1594 -0.0818659 0)
(51.167 -0.0788578 0)
(51.1737 -0.0730703 0)
(51.1788 -0.0631928 0)
(51.1811 -0.0498677 0)
(51.1794 -0.0331103 0)
(51.1723 -0.014272 0)
(51.1589 0.00504088 0)
(51.139 0.0224685 0)
(51.1138 0.0358124 0)
(51.0851 0.0434191 0)
(51.0557 0.0448682 0)
(51.0277 0.0409896 0)
(51.0028 0.0334868 0)
(50.9814 0.0243809 0)
(50.9629 0.0154147 0)
(50.9461 0.00773734 0)
(50.9298 0.00190856 0)
(50.9123 -0.00200586 0)
(50.8924 -0.0041895 0)
(50.8686 -0.00491589 0)
(50.8398 -0.00463006 0)
(50.8052 -0.00365564 0)
(50.764 -0.00235305 0)
(50.7162 -0.000912198 0)
(50.6625 0.00018997 0)
(50.6041 0.00170162 0)
(50.5439 0.00239783 0)
(50.4859 0.00302526 0)
(50.4324 0.00301448 0)
(50.3819 0.00238797 0)
(50.3267 0.00188562 0)
(50.255 0.00215783 0)
(50.1564 0.00134219 0)
(50.0325 0.00353905 0)
(49.8633 0.00284952 0)
(51.0449 0.000804738 0)
(51.0882 -0.0104689 0)
(51.082 -0.0303154 0)
(51.1058 -0.0347661 0)
(51.1084 -0.0521101 0)
(51.1208 -0.0569678 0)
(51.127 -0.0683841 0)
(51.1358 -0.0730286 0)
(51.1433 -0.0794012 0)
(51.1514 -0.081592 0)
(51.1594 -0.0827584 0)
(51.1674 -0.0801671 0)
(51.1748 -0.0747882 0)
(51.1809 -0.0652849 0)
(51.1844 -0.0521453 0)
(51.1844 -0.03523 0)
(51.1791 -0.0156719 0)
(51.1675 0.00507622 0)
(51.149 0.0246854 0)
(51.1243 0.0407488 0)
(51.0951 0.051163 0)
(51.064 0.0549346 0)
(51.0337 0.0524343 0)
(51.0064 0.0451677 0)
(50.9828 0.0352511 0)
(50.9629 0.0247535 0)
(50.9457 0.0152156 0)
(50.9296 0.00752289 0)
(50.9131 0.00194803 0)
(50.8947 -0.00160544 0)
(50.8728 -0.00344666 0)
(50.8462 -0.00387128 0)
(50.8136 -0.00339499 0)
(50.7745 -0.00231584 0)
(50.7285 -0.00101826 0)
(50.6758 0.000372113 0)
(50.6178 0.00131206 0)
(50.5568 0.00270076 0)
(50.4964 0.00311627 0)
(50.4404 0.003509 0)
(50.388 0.00324766 0)
(50.3332 0.00252122 0)
(50.2649 0.00206193 0)
(50.1719 0.00252804 0)
(50.0477 0.00178943 0)
(49.8989 0.00416401 0)
(49.7085 0.00316962 0)
(51.0448 0.00175901 0)
(51.0878 -0.00998034 0)
(51.0817 -0.0296179 0)
(51.1055 -0.0342691 0)
(51.108 -0.0516006 0)
(51.1204 -0.0566295 0)
(51.1266 -0.0681331 0)
(51.1354 -0.0729954 0)
(51.1429 -0.0795603 0)
(51.1512 -0.0820534 0)
(51.1594 -0.0835376 0)
(51.1678 -0.081351 0)
(51.1757 -0.0763842 0)
(51.1827 -0.0672847 0)
(51.1875 -0.0544034 0)
(51.189 -0.0374559 0)
(51.1855 -0.017356 0)
(51.1759 0.00463415 0)
(51.1591 0.0262874 0)
(51.1353 0.045084 0)
(51.106 0.0585445 0)
(51.0736 0.0651033 0)
(51.041 0.064561 0)
(51.0109 0.0580753 0)
(50.9848 0.0477399 0)
(50.9631 0.0358792 0)
(50.9448 0.0244407 0)
(50.9286 0.014696 0)
(50.9129 0.00720145 0)
(50.8958 0.00201636 0)
(50.8758 -0.0011259 0)
(50.8513 -0.00260717 0)
(50.821 -0.00274602 0)
(50.784 -0.00210379 0)
(50.74 -0.000966608 0)
(50.689 0.000304409 0)
(50.6315 0.00158909 0)
(50.57 0.00235241 0)
(50.5079 0.00354645 0)
(50.4489 0.00368753 0)
(50.3943 0.00383015 0)
(50.3391 0.00342015 0)
(50.2731 0.0026307 0)
(50.1848 0.0023189 0)
(50.0662 0.0029142 0)
(49.9159 0.00229593 0)
(49.7444 0.00464147 0)
(49.537 0.00331556 0)
(51.0447 0.00269979 0)
(51.0875 -0.00948908 0)
(51.0814 -0.0289191 0)
(51.1051 -0.0337592 0)
(51.1076 -0.0510728 0)
(51.1201 -0.0562593 0)
(51.1262 -0.0678403 0)
(51.135 -0.0729036 0)
(51.1426 -0.079646 0)
(51.1509 -0.082422 0)
(51.1594 -0.0842075 0)
(51.1681 -0.0824101 0)
(51.1766 -0.0778537 0)
(51.1843 -0.0691767 0)
(51.1903 -0.0566116 0)
(51.1933 -0.0397432 0)
(51.1917 -0.01927 0)
(51.184 0.00375747 0)
(51.1691 0.0272735 0)
(51.1467 0.0487379 0)
(51.1177 0.0653922 0)
(51.0843 0.0751339 0)
(51.0496 0.0771287 0)
(51.0167 0.0720461 0)
(50.9877 0.0618025 0)
(50.9635 0.0488682 0)
(50.9437 0.0355777 0)
(50.927 0.0236445 0)
(50.9116 0.01398 0)
(50.8957 0.00687521 0)
(50.8774 0.00216236 0)
(50.855 -0.000533187 0)
(50.8271 -0.00166679 0)
(50.7925 -0.0015383 0)
(50.7507 -0.0007806 0)
(50.7014 0.000389503 0)
(50.6452 0.00157287 0)
(50.5835 0.00273162 0)
(50.5199 0.00324463 0)
(50.4583 0.00424536 0)
(50.4008 0.0040837 0)
(50.3447 0.00405935 0)
(50.2803 0.00353351 0)
(50.1958 0.00279796 0)
(50.0821 0.00260407 0)
(49.9366 0.00336644 0)
(49.7621 0.0027114 0)
(49.5711 0.00502652 0)
(49.3508 0.00320496 0)
(51.0446 0.00363349 0)
(51.0872 -0.00899389 0)
(51.0812 -0.0282186 0)
(51.1048 -0.033237 0)
(51.1072 -0.0505276 0)
(51.1197 -0.0558594 0)
(51.1258 -0.0675085 0)
(51.1347 -0.0727563 0)
(51.1422 -0.0796631 0)
(51.1507 -0.0827017 0)
(51.1593 -0.0847724 0)
(51.1683 -0.0833469 0)
(51.1773 -0.0791935 0)
(51.1857 -0.0709506 0)
(51.1928 -0.0587469 0)
(51.1972 -0.0420514 0)
(51.1975 -0.0213601 0)
(51.1919 0.00249954 0)
(51.1791 0.0276673 0)
(51.1583 0.0516691 0)
(51.13 0.0715677 0)
(51.0962 0.0847999 0)
(51.0597 0.0898836 0)
(51.024 0.0868689 0)
(50.9917 0.0773263 0)
(50.9645 0.0637402 0)
(50.9426 0.048764 0)
(50.9248 0.0345815 0)
(50.9094 0.0225306 0)
(50.8944 0.0132071 0)
(50.8777 0.00661843 0)
(50.8574 0.00243619 0)
(50.8318 0.000187611 0)
(50.7997 -0.000618996 0)
(50.7603 -0.000270232 0)
(50.7131 0.000569517 0)
(50.6584 0.00170987 0)
(50.5973 0.00278074 0)
(50.5325 0.00373468 0)
(50.4684 0.00399361 0)
(50.4081 0.00475466 0)
(50.3499 0.00437072 0)
(50.2865 0.00421151 0)
(50.2053 0.0036864 0)
(50.0962 0.00298261 0)
(49.955 0.00296911 0)
(49.7838 0.00378865 0)
(49.5883 0.00314564 0)
(49.3814 0.00526077 0)
(49.1524 0.00293335 0)
(51.0445 0.00458054 0)
(51.0869 -0.00849186 0)
(51.0809 -0.0275148 0)
(51.1046 -0.0327031 0)