/*--------------------------------*- C++ -*----------------------------------*\
  =========                 |
  \\      /  F ield         | OpenFOAM: The Open Source CFD Toolbox
   \\    /   O peration     | Website:  https://openfoam.org
    \\  /    A nd           | Version:  dev
     \\/     M anipulation  |
\*---------------------------------------------------------------------------*/
FoamFile
{
    version     2.0;
    format      ascii;
    class       volScalarField;
    location    "100";
    object      yPlus;
}
// * * * * * * * * * * * * * * * * * * * * * * * * * * * * * * * * * * * * * //

dimensions      [0 0 0 0 0 0 0];

internalField   uniform 0;

boundaryField
{
    inlet-l
    {
        type            calculated;
        value           uniform 0;
    }
    airfoil-l1
    {
        type            calculated;
        value           nonuniform List<scalar> 
71
(
191.461
214.821
249.927
283.713
310.257
327.631
337.918
343.072
344.584
343.587
340.769
336.891
331.509
325.071
317.972
310.481
302.768
294.937
287.048
279.182
271.401
263.72
256.167
248.77
241.562
234.572
227.823
221.309
215.057
209.107
203.55
198.503
194.023
190.056
186.514
183.335
180.581
178.378
176.828
175.938
175.572
175.595
175.924
176.394
176.979
177.535
178.113
178.586
178.93
179.078
179.006
178.555
177.661
176.368
174.64
172.476
170.012
167.262
164.359
161.323
158.263
155.161
152.07
149.012
145.993
143.06
140.21
137.485
134.843
132.427
129.872
)
;
    }
    empty-1
    {
        type            empty;
    }
    empty-2
    {
        type            empty;
    }
    wall-l1
    {
        type            calculated;
        value           nonuniform List<scalar> 
104
(
30.5514
30.7362
30.9422
31.1504
31.3565
31.5615
31.7643
31.9667
32.1623
32.3537
32.5403
32.7245
32.9041
33.0799
33.2517
33.4186
33.5807
33.738
33.8891
34.0351
34.1756
34.3097
34.437
34.5583
34.6721
34.7786
34.8784
34.9705
35.0539
35.129
35.1965
35.255
35.3038
35.3451
35.376
35.398
35.4104
35.4131
35.4061
35.3887
35.3622
35.3252
35.2776
35.2202
35.1529
35.0745
34.9862
34.8872
34.7791
34.6595
34.5295
34.3902
34.2398
34.0801
33.9094
33.7296
33.5388
33.3386
33.1285
32.9084
32.6785
32.4388
32.1889
31.93
31.6613
31.3819
31.0935
30.796
30.4885
30.1712
29.8453
29.5094
29.1647
28.811
28.4484
28.0776
27.6975
27.3096
26.9137
26.5099
26.0988
25.6804
25.2548
24.8233
24.3851
23.9411
23.4915
23.0366
22.5768
22.113
21.6447
21.1734
20.6987
20.2219
19.7433
19.2642
18.7852
18.3075
17.8337
17.3649
16.9058
16.4522
16.0367
15.5583
)
;
    }
    airfoil-l2
    {
        type            calculated;
        value           nonuniform List<scalar> 
104
(
129.622
131.985
133.839
135.174
136.135
136.807
137.247
137.498
137.617
137.596
137.432
137.154
136.797
136.376
135.894
135.353
134.762
134.177
133.589
133.003
132.41
131.778
131.106
130.4
129.69
129.008
128.35
127.706
127.056
126.381
125.677
124.971
124.276
123.588
122.911
122.245
121.58
120.91
120.232
119.548
118.866
118.19
117.522
116.863
116.211
115.56
114.91
114.257
113.611
112.964
112.319
111.679
111.043
110.418
109.794
109.179
108.562
107.958
107.361
106.776
106.201
105.645
105.114
104.596
104.102
103.619
103.141
102.657
102.163
101.646
101.085
100.464
99.7852
99.0414
98.221
97.3535
96.4385
95.4887
94.5341
93.5928
92.6834
91.8141
91.0054
90.2404
89.5075
88.7939
88.0778
87.3166
86.4877
85.5845
84.5857
83.4836
82.2787
80.9861
79.6082
78.1636
76.6467
75.0661
73.3996
71.5952
69.6239
67.2137
64.6066
59.391
)
;
    }
    empty-3
    {
        type            empty;
    }
    empty-4
    {
        type            empty;
    }
    wall-l2
    {
        type            calculated;
        value           nonuniform List<scalar> 
51
(
15.2516
14.8418
14.4598
14.1634
13.9528
13.8205
13.7815
13.8541
14.0403
14.3343
14.7265
15.205
15.7561
16.3675
17.0273
17.7265
18.4577
19.2152
19.9944
20.7921
21.6052
22.4319
23.2699
24.1177
24.9737
25.8362
26.7038
27.5748
28.4472
29.3193
30.1891
31.0546
31.9135
32.7636
33.6024
34.4276
35.237
36.0289
36.8014
37.5533
38.2835
38.9919
39.6787
40.346
40.9966
41.634
42.2684
42.8936
43.591
44.1643
45.5263
)
;
    }
    outlet-l
    {
        type            calculated;
        value           uniform 0;
    }
    empty-5
    {
        type            empty;
    }
    empty-6
    {
        type            empty;
    }
    outlet-h
    {
        type            calculated;
        value           uniform 0;
    }
    wall-h2
    {
        type            calculated;
        value           nonuniform List<scalar> 
51
(
15.4404
14.9902
14.562
14.2095
13.9371
13.7369
13.6279
13.633
13.7588
14.003
14.3576
14.8101
15.3454
15.949
16.6067
17.3077
18.0432
18.8062
19.5916
20.3953
21.2142
22.046
22.8884
23.7398
24.5984
25.4627
26.3312
27.2021
28.0736
28.944
29.8112
30.6735
31.5283
32.3738
33.2072
34.0264
34.8293
35.6143
36.3795
37.1238
37.8463
38.5468
39.226
39.8859
40.5297
41.161
41.7908
42.4122
43.1081
43.6805
45.0414
)
;
    }
    empty-7
    {
        type            empty;
    }
    empty-8
    {
        type            empty;
    }
    airfoil-h2
    {
        type            calculated;
        value           nonuniform List<scalar> 
104
(
128.145
130.451
132.266
133.58
134.533
135.215
135.673
135.953
136.096
136.122
136.013
135.793
135.489
135.111
134.664
134.171
133.645
133.122
132.583
132.035
131.457
130.841
130.2
129.554
128.915
128.283
127.671
127.052
126.413
125.761
125.09
124.415
123.746
123.101
122.462
121.822
121.174
120.519
119.863
119.198
118.538
117.878
117.224
116.58
115.945
115.315
114.685
114.052
113.421
112.784
112.158
111.523
110.897
110.283
109.669
109.065
108.471
107.881
107.294
106.725
106.162
105.624
105.094
104.581
104.079
103.584
103.084
102.569
102.033
101.465
100.846
100.183
99.4622
98.6868
97.8626
96.994
96.1034
95.1925
94.2863
93.3955
92.5305
91.7087
90.924
90.1668
89.4326
88.7043
87.9548
87.167
86.3222
85.4057
84.4082
83.3239
82.1537
80.9076
79.5854
78.194
76.729
75.1805
73.5277
71.7175
69.7207
67.2652
64.5994
59.2921
)
;
    }
    wall-h1
    {
        type            calculated;
        value           nonuniform List<scalar> 
104
(
30.9653
31.1485
31.3531
31.5596
31.7644
31.9671
32.1686
32.3703
32.5651
32.7557
32.9423
33.1256
33.3053
33.4812
33.6531
33.8203
33.983
34.14
34.2917
34.4386
34.579
34.7138
34.8418
34.9637
35.078
35.1855
35.2857
35.3781
35.4631
35.5387
35.6072
35.6662
35.7168
35.7588
35.7907
35.8136
35.8269
35.8305
35.8243
35.8075
35.7821
35.7447
35.6983
35.6404
35.5737
35.4955
35.4072
35.3087
35.1997
35.0808
34.9505
34.8105
34.661
34.5007
34.3301
34.1502
33.9596
33.7594
33.5489
33.3297
33.0994
32.8597
32.6096
32.3506
32.0818
31.802
31.5131
31.215
30.9065
30.5887
30.2618
29.9252
29.5788
29.2238
28.8596
28.4872
28.1055
27.7154
27.318
26.9128
26.4992
26.0785
25.6515
25.2171
24.7772
24.3309
23.8788
23.4214
22.9588
22.4918
22.0203
21.5453
21.0662
20.5847
20.1004
19.6145
19.1275
18.6409
18.1559
17.6734
17.1983
16.7256
16.2865
15.7782
)
;
    }
    empty-9
    {
        type            empty;
    }
    empty-10
    {
        type            empty;
    }
    inlet-h
    {
        type            calculated;
        value           uniform 0;
    }
    airfoil-h1
    {
        type            calculated;
        value           nonuniform List<scalar> 
71
(
189.49
209.801
244.232
278.755
307.093
326.48
338.548
345.124
347.706
347.461
345.162
341.527
336.458
330.13
322.99
315.349
307.403
299.281
291.047
282.81
274.624
266.514
258.523
250.681
243.001
235.542
228.322
221.361
214.653
208.24
202.231
196.763
191.907
187.609
183.765
180.289
177.247
174.807
173.076
172.05
171.612
171.593
171.883
172.375
173.018
173.65
174.278
174.828
175.268
175.546
175.565
175.286
174.58
173.452
171.877
169.874
167.548
164.944
162.127
159.202
156.205
153.181
150.16
147.168
144.221
141.329
138.552
135.869
133.288
130.931
128.419
)
;
    }
    empty-11
    {
        type            empty;
    }
    empty-12
    {
        type            empty;
    }
}


// ************************************************************************* //
