/*--------------------------------*- C++ -*----------------------------------*\
  =========                 |
  \\      /  F ield         | OpenFOAM: The Open Source CFD Toolbox
   \\    /   O peration     | Website:  https://openfoam.org
    \\  /    A nd           | Version:  dev
     \\/     M anipulation  |
\*---------------------------------------------------------------------------*/
FoamFile
{
    version     2.0;
    format      ascii;
    class       volScalarField;
    location    "0";
    object      yPlus;
}
// * * * * * * * * * * * * * * * * * * * * * * * * * * * * * * * * * * * * * //

dimensions      [0 0 0 0 0 0 0];

internalField   uniform 0;

boundaryField
{
    inlet-l
    {
        type            calculated;
        value           uniform 0;
    }
    airfoil-l1
    {
        type            calculated;
        value           nonuniform List<scalar> 
71
(
192.51
191.908
190.984
191.29
192.49
193.008
193.174
193.226
193.291
193.41
193.608
193.874
194.199
194.552
194.956
195.359
195.776
196.188
196.601
196.989
197.372
197.741
198.1
198.437
198.773
199.084
199.393
199.7
200
200.291
200.589
200.892
201.197
201.512
201.833
202.174
202.524
202.89
203.278
203.681
204.107
204.556
205.029
205.575
206.129
206.71
207.285
207.873
208.456
209.026
209.554
210.031
210.431
210.709
210.834
210.758
210.433
209.802
208.826
207.452
205.688
203.519
200.996
198.179
195.133
191.96
188.714
185.463
182.223
179.033
175.867
)
;
    }
    empty-1
    {
        type            empty;
    }
    empty-2
    {
        type            empty;
    }
    wall-l1
    {
        type            calculated;
        value           uniform 0;
    }
    airfoil-l2
    {
        type            calculated;
        value           nonuniform List<scalar> 
104
(
173.683
173.721
173.75
173.775
173.795
173.813
173.826
173.831
173.836
173.839
173.838
173.832
173.827
173.824
173.82
173.814
173.799
173.797
173.786
173.772
173.761
173.754
173.746
173.734
173.721
173.712
173.702
173.693
173.683
173.669
173.649
173.639
173.638
173.627
173.612
173.602
173.591
173.585
173.578
173.568
173.557
173.547
173.537
173.527
173.52
173.514
173.505
173.495
173.489
173.484
173.475
173.465
173.46
173.456
173.451
173.446
173.438
173.433
173.429
173.425
173.418
173.414
173.415
173.407
173.404
173.401
173.395
173.388
173.385
173.387
173.386
173.379
173.378
173.38
173.367
173.372
173.377
173.372
173.372
173.371
173.371
173.362
173.37
173.371
173.368
173.368
173.373
173.374
173.363
173.371
173.375
173.376
173.378
173.379
173.382
173.384
173.386
173.389
173.392
173.394
173.398
173.401
173.404
173.407
)
;
    }
    empty-3
    {
        type            empty;
    }
    empty-4
    {
        type            empty;
    }
    wall-l2
    {
        type            calculated;
        value           uniform 0;
    }
    outlet-l
    {
        type            calculated;
        value           uniform 0;
    }
    empty-5
    {
        type            empty;
    }
    empty-6
    {
        type            empty;
    }
    outlet-h
    {
        type            calculated;
        value           uniform 0;
    }
    wall-h2
    {
        type            calculated;
        value           uniform 0;
    }
    empty-7
    {
        type            empty;
    }
    empty-8
    {
        type            empty;
    }
    airfoil-h2
    {
        type            calculated;
        value           nonuniform List<scalar> 
104
(
173.704
173.737
173.766
173.788
173.805
173.821
173.833
173.836
173.837
173.839
173.838
173.836
173.835
173.833
173.825
173.82
173.806
173.804
173.79
173.783
173.775
173.765
173.754
173.746
173.738
173.721
173.714
173.704
173.69
173.682
173.671
173.656
173.642
173.641
173.634
173.623
173.609
173.594
173.587
173.574
173.57
173.559
173.548
173.538
173.531
173.525
173.514
173.504
173.498
173.485
173.485
173.469
173.462
173.457
173.448
173.442
173.441
173.436
173.424
173.422
173.411
173.414
173.407
173.403
173.399
173.396
173.393
173.386
173.383
173.384
173.374
173.375
173.373
173.372
173.37
173.364
173.37
173.367
173.366
173.365
173.36
173.36
173.363
173.36
173.36
173.364
173.365
173.365
173.366
173.367
173.368
173.367
173.364
173.366
173.367
173.369
173.37
173.372
173.373
173.375
173.376
173.378
173.38
173.381
)
;
    }
    wall-h1
    {
        type            calculated;
        value           uniform 0;
    }
    empty-9
    {
        type            empty;
    }
    empty-10
    {
        type            empty;
    }
    inlet-h
    {
        type            calculated;
        value           uniform 0;
    }
    airfoil-h1
    {
        type            calculated;
        value           nonuniform List<scalar> 
71
(
192.517
191.964
191.1
191.035
192.169
192.728
192.937
193.013
193.086
193.204
193.395
193.657
193.971
194.343
194.74
195.17
195.595
196.038
196.476
196.887
197.316
197.705
198.097
198.467
198.833
199.174
199.512
199.84
200.164
200.488
200.799
201.119
201.439
201.776
202.105
202.454
202.814
203.188
203.576
203.985
204.409
204.854
205.327
205.868
206.409
206.974
207.542
208.113
208.672
209.209
209.716
210.158
210.517
210.755
210.837
210.714
210.343
209.672
208.651
207.255
205.465
203.293
200.775
197.975
194.96
191.802
188.602
185.369
182.17
179.023
175.888
)
;
    }
    empty-11
    {
        type            empty;
    }
    empty-12
    {
        type            empty;
    }
}


// ************************************************************************* //
