/*--------------------------------*- C++ -*----------------------------------*\
  =========                 |
  \\      /  F ield         | OpenFOAM: The Open Source CFD Toolbox
   \\    /   O peration     | Website:  https://openfoam.org
    \\  /    A nd           | Version:  dev
     \\/     M anipulation  |
\*---------------------------------------------------------------------------*/
FoamFile
{
    version     2.0;
    format      ascii;
    class       surfaceScalarField;
    location    "475";
    object      phi;
}
// * * * * * * * * * * * * * * * * * * * * * * * * * * * * * * * * * * * * * //

dimensions      [0 3 -1 0 0 0 0];

internalField   nonuniform List<scalar> 
58294
(
-0.473326
1.44271e-05
-0.47334
1.48797e-05
-0.429557
2.6734e-05
-0.473353
1.36788e-05
-0.429573
3.04808e-05
-0.389855
1.92994e-05
-0.473362
1.19354e-05
-0.429585
2.58552e-05
-0.389845
2.06859e-05
-0.353806
1.21975e-05
-0.473368
9.87695e-06
-0.429593
2.00733e-05
-0.389835
1.55556e-05
-0.353798
1.2633e-05
-0.321079
7.83579e-06
-0.473369
7.96279e-06
-0.429596
1.32778e-05
-0.389826
1.15159e-05
-0.353792
9.7611e-06
-0.321075
8.55918e-06
-0.291378
2.57853e-06
-0.473366
6.55724e-06
-0.429596
7.10763e-06
-0.389821
8.21457e-06
-0.353789
8.44979e-06
-0.321074
8.12627e-06
-0.291373
3.93274e-06
-0.264423
-1.94718e-06
-0.473362
5.88834e-06
-0.429592
2.9462e-06
-0.38982
6.60859e-06
-0.353789
8.14149e-06
-0.321074
8.84157e-06
-0.29137
5.22453e-06
-0.264419
1.6011e-07
-0.239963
-6.92629e-06
-0.473357
5.89073e-06
-0.429588
1.33772e-06
-0.389824
6.86112e-06
-0.353792
9.16872e-06
-0.321076
1.0044e-05
-0.291369
7.61305e-06
-0.264416
2.59783e-06
-0.239959
-4.00051e-06
-0.217758
-1.20717e-05
-0.473353
6.31849e-06
-0.429584
2.10309e-06
-0.389831
8.52533e-06
-0.353796
1.12102e-05
-0.321079
1.18477e-05
-0.29137
1.0368e-05
-0.264415
6.10312e-06
-0.239956
-6.76274e-07
-0.217754
-8.50404e-06
-0.19761
-1.74875e-05
-0.473352
6.80991e-06
-0.429582
4.38492e-06
-0.38984
1.07996e-05
-0.353801
1.36526e-05
-0.321082
1.39662e-05
-0.291371
1.33258e-05
-0.264414
9.85065e-06
-0.239953
3.79051e-06
-0.21775
-4.38995e-06
-0.197606
-1.32462e-05
-0.179326
-2.29237e-05
-0.473352
7.04752e-06
-0.429582
7.1001e-06
-0.389849
1.28281e-05
-0.353806
1.58025e-05
-0.321084
1.60772e-05
-0.291373
1.61816e-05
-0.264415
1.3663e-05
-0.239952
8.53561e-06
-0.217747
9.20313e-07
-0.197602
-8.49384e-06
-0.179321
-1.82158e-05
-0.162731
-2.84345e-05
-0.473354
6.8588e-06
-0.429584
9.22845e-06
-0.389855
1.39557e-05
-0.353811
1.70821e-05
-0.321086
1.77932e-05
-0.291376
1.86678e-05
-0.264416
1.72227e-05
-0.239952
1.32807e-05
-0.217745
6.5242e-06
-0.197598
-2.46972e-06
-0.179316
-1.28559e-05
-0.162726
-2.31957e-05
-0.147673
-3.37686e-05
-0.473357
6.24927e-06
-0.429588
1.01459e-05
-0.38986
1.38727e-05
-0.353814
1.7204e-05
-0.321088
1.8829e-05
-0.291379
2.0591e-05
-0.264417
2.03628e-05
-0.239952
1.77598e-05
-0.217744
1.21843e-05
-0.197596
3.92959e-06
-0.179313
-6.21461e-06
-0.162721
-1.74026e-05
-0.147668
-2.82272e-05
-0.134009
-3.90866e-05
-0.473359
5.3782e-06
-0.429591
9.69358e-06
-0.389863
1.26263e-05
-0.353816
1.61893e-05
-0.32109
1.90087e-05
-0.291382
2.1804e-05
-0.26442
2.29185e-05
-0.239954
2.17808e-05
-0.217744
1.759e-05
-0.197594
1.04098e-05
-0.179309
8.32173e-07
-0.162717
-1.02599e-05
-0.147663
-2.19818e-05
-0.134004
-3.31347e-05
-0.121607
-4.40904e-05
-0.473361
4.44554e-06
-0.429594
8.13612e-06
-0.389863
1.05029e-05
-0.353818
1.43169e-05
-0.321092
1.83684e-05
-0.291385
2.22846e-05
-0.264423
2.48185e-05
-0.239956
2.52256e-05
-0.217745
2.2587e-05
-0.197593
1.67212e-05
-0.179307
8.06457e-06
-0.162714
-2.62248e-06
-0.147659
-1.44256e-05
-0.134
-2.65641e-05
-0.121602
-3.7991e-05
-0.110354
-4.89879e-05
-0.473363
3.62052e-06
-0.429596
5.9848e-06
-0.389863
7.93667e-06
-0.353819
1.19869e-05
-0.321095
1.70703e-05
-0.291389
2.20734e-05
-0.264426
2.60115e-05
-0.239959
2.79981e-05
-0.217747
2.70303e-05
-0.197593
2.26853e-05
-0.179306
1.51922e-05
-0.162711
5.23228e-06
-0.147655
-6.35281e-06
-0.133995
-1.86787e-05
-0.121597
-3.10131e-05
-0.110349
-4.26351e-05
-0.100142
-5.34143e-05
-0.473363
2.95672e-06
-0.429596
3.77982e-06
-0.389862
5.34965e-06
-0.353821
9.60808e-06
-0.321098
1.53992e-05
-0.291393
2.13088e-05
-0.264431
2.6527e-05
-0.239963
3.00495e-05
-0.217749
3.08205e-05
-0.197594
2.81699e-05
-0.179305
2.20716e-05
-0.162709
1.30818e-05
-0.147652
2.03188e-06
-0.133991
-1.02131e-05
-0.121593
-2.28721e-05
-0.110345
-3.53777e-05
-0.100138
-4.7133e-05
-0.0908763
-5.767e-05
-0.473364
2.42198e-06
-0.429595
1.95054e-06
-0.389862
3.13155e-06
-0.353823
7.49755e-06
-0.321102
1.36314e-05
-0.291398
2.01413e-05
-0.264436
2.64144e-05
-0.239968
3.13592e-05
-0.217753
3.38769e-05
-0.197596
3.3056e-05
-0.179305
2.8556e-05
-0.162708
2.07639e-05
-0.14765
1.04655e-05
-0.133988
-1.43947e-06
-0.121589
-1.41521e-05
-0.11034
-2.70456e-05
-0.100134
-3.95213e-05
-0.0908721
-5.13515e-05
-0.0824684
-6.13633e-05
-0.473363
1.92688e-06
-0.429593
7.01964e-07
-0.389861
1.53161e-06
-0.353826
5.85036e-06
-0.321106
1.20017e-05
-0.291403
1.87461e-05
-0.264442
2.57691e-05
-0.239973
3.19474e-05
-0.217758
3.61384e-05
-0.1976
3.72192e-05
-0.179307
3.45147e-05
-0.162707
2.8151e-05
-0.147648
1.88225e-05
-0.133985
7.45627e-06
-0.121586
-5.07075e-06
-0.110337
-1.80869e-05
-0.10013
-3.10817e-05
-0.0908682
-4.35014e-05
-0.0824644
-5.53703e-05
-0.0748317
-6.48912e-05
-0.473363
1.41704e-06
-0.429591
6.00137e-08
-0.389861
6.88485e-07
-0.353829
4.73521e-06
-0.321111
1.06191e-05
-0.291408
1.72434e-05
-0.264448
2.46898e-05
-0.23998
3.1853e-05
-0.217764
3.75777e-05
-0.197604
4.05656e-05
-0.179309
3.98103e-05
-0.162708
3.51103e-05
-0.147646
2.69799e-05
-0.133982
1.63409e-05
-0.121582
4.15524e-06
-0.110333
-8.80658e-06
-0.100126
-2.20025e-05
-0.0908643
-3.50053e-05
-0.0824607
-4.71769e-05
-0.0748279
-5.91062e-05
-0.0679101
-6.78459e-05
-0.473362
8.9408e-07
-0.42959
-1.07764e-07
-0.389862
5.53891e-07
-0.353832
4.11047e-06
-0.321116
9.49501e-06
-0.291413
1.57249e-05
-0.264454
2.32768e-05
-0.239986
3.11512e-05
-0.21777
3.81953e-05
-0.19761
4.30122e-05
-0.179313
4.43026e-05
-0.162709
4.14907e-05
-0.147646
3.48206e-05
-0.133981
2.51222e-05
-0.121579
1.34308e-05
-0.110329
6.5997e-07
-0.100122
-1.25713e-05
-0.0908605
-2.58057e-05
-0.082457
-3.87051e-05
-0.0748245
-5.06374e-05
-0.0679066
-6.26608e-05
-0.061622
-7.06911e-05
-0.473361
4.34772e-07
-0.429589
3.47667e-08
-0.389863
9.60213e-07
-0.353835
3.85296e-06
-0.32112
8.53818e-06
-0.291418
1.42181e-05
-0.26446
2.16206e-05
-0.239993
2.99197e-05
-0.217777
3.80337e-05
-0.197616
4.45171e-05
-0.179318
4.78753e-05
-0.162712
4.714e-05
-0.147647
4.21993e-05
-0.133979
3.37002e-05
-0.121577
2.26864e-05
-0.110326
1.02122e-05
-0.100119
-2.95105e-06
-0.0908568
-1.63105e-05
-0.0824533
-2.94837e-05
-0.0748211
-4.22152e-05
-0.0679035
-5.37681e-05
-0.0616186
-6.59884e-05
-0.0559213
-7.2971e-05
-0.473361
1.28811e-07
-0.429589
3.13785e-07
-0.389864
1.60318e-06
-0.353838
3.77958e-06
-0.321124
7.63515e-06
-0.291422
1.27291e-05
-0.264465
1.97997e-05
-0.239999
2.82609e-05
-0.217784
3.71596e-05
-0.197623
4.50917e-05
-0.179324
5.04394e-05
-0.162716
5.19048e-05
-0.147649
4.89554e-05
-0.133979
4.19499e-05
-0.121575
3.185e-05
-0.110323
1.98067e-05
-0.100115
6.77705e-06
-0.0908531
-6.60316e-06
-0.0824497
-1.99577e-05
-0.0748176
-3.29547e-05
-0.0679002
-4.5459e-05
-0.0616158
-5.66984e-05
-0.0559182
-6.91627e-05
-0.0507479
-7.51889e-05
-0.473361
3.82176e-08
-0.429589
6.20241e-07
-0.389866
2.17305e-06
-0.35384
3.69295e-06
-0.321127
6.67596e-06
-0.291426
1.12419e-05
-0.26447
1.7883e-05
-0.240006
2.62785e-05
-0.217791
3.5677e-05
-0.197631
4.47799e-05
-0.179331
5.19658e-05
-0.162721
5.5658e-05
-0.147652
5.49185e-05
-0.13398
4.97118e-05
-0.121574
4.08136e-05
-0.110321
2.93981e-05
-0.100112
1.65947e-05
-0.0908495
3.22037e-06
-0.082446
-1.02286e-05
-0.0748141
-2.34674e-05
-0.0678969
-3.62258e-05
-0.0616128
-4.85013e-05
-0.0559155
-5.93153e-05
-0.0507449
-7.21612e-05
-0.0460501
-7.68633e-05
-0.473361
1.41346e-07
-0.42959
8.69548e-07
-0.389868
2.39087e-06
-0.353842
3.42092e-06
-0.321129
5.61455e-06
-0.291429
9.75645e-06
-0.264475
1.59315e-05
-0.240012
2.40844e-05
-0.217799
3.37101e-05
-0.197639
4.36896e-05
-0.179339
5.247e-05
-0.162728
5.83274e-05
-0.147656
5.99261e-05
-0.133982
5.68099e-05
-0.121574
4.94417e-05
-0.110319
3.89152e-05
-0.100109
2.64786e-05
-0.0908461
1.31538e-05
-0.0824424
-3.91063e-07
-0.0748105
-1.37679e-05
-0.0678936
-2.67858e-05
-0.0616097
-3.92544e-05
-0.0559127
-5.12939e-05
-0.0507425
-6.17644e-05
-0.0460472
-7.50352e-05
-0.041789
-7.85151e-05
-0.473362
3.4583e-07
-0.429591
1.02433e-06
-0.389869
2.13641e-06
-0.353842
2.86778e-06
-0.32113
4.46676e-06
-0.291431
8.28548e-06
-0.264479
1.40053e-05
-0.240018
2.17866e-05
-0.217806
3.13972e-05
-0.197647
4.19456e-05
-0.179347
5.20309e-05
-0.162735
5.98773e-05
-0.147661
6.38617e-05
-0.133985
6.3058e-05
-0.121574
5.75535e-05
-0.110318
4.82327e-05
-0.100106
3.63805e-05
-0.0908428
2.32008e-05
-0.0824389
9.57588e-06
-0.0748069
-3.9706e-06
-0.0678902
-1.71542e-05
-0.0616066
-2.98991e-05
-0.0559099
-4.20806e-05
-0.0507399
-5.39077e-05
-0.046045
-6.39379e-05
-0.0417863
-7.77641e-05
-0.0379224
-7.96424e-05
-0.473363
5.12831e-07
-0.429592
1.04533e-06
-0.389869
1.43501e-06
-0.353842
2.03902e-06
-0.32113
3.31014e-06
-0.291434
6.87081e-06
-0.264483
1.21535e-05
-0.240023
1.94852e-05
-0.217813
2.88771e-05
-0.197655
3.97087e-05
-0.179356
5.07705e-05
-0.162744
6.03545e-05
-0.147668
6.66413e-05
-0.133989
6.83049e-05
-0.121576
6.49581e-05
-0.110317
5.71982e-05
-0.100104
4.62195e-05
-0.0908398
3.33522e-05
-0.0824353
1.96861e-05
-0.0748033
5.94675e-06
-0.0678867
-7.45861e-06
-0.0616034
-2.03602e-05
-0.055907
-3.28016e-05
-0.0507373
-4.46838e-05
-0.0460426
-5.63094e-05
-0.0417843
-6.59789e-05
-0.0379197
-8.03638e-05
-0.0344127
-8.07688e-05
-0.473363
5.25327e-07
-0.429592
9.20467e-07
-0.389868
4.73787e-07
-0.353841
1.0478e-06
-0.321131
2.24783e-06
-0.291436
5.5594e-06
-0.264487
1.04267e-05
-0.240028
1.72592e-05
-0.21782
2.62777e-05
-0.197664
3.71258e-05
-0.179365
4.88367e-05
-0.162753
5.98403e-05
-0.147676
6.82572e-05
-0.133995
7.24191e-05
-0.12158
7.1479e-05
-0.110318
6.56156e-05
-0.100103
5.58514e-05
-0.0908371
4.35391e-05
-0.0824319
2.99512e-05
-0.0747996
1.60245e-05
-0.0678831
2.35493e-06
-0.0616
-1.07888e-05
-0.055904
-2.33674e-05
-0.0507346
-3.5502e-05
-0.0460402
-4.71109e-05
-0.0417821
-5.85608e-05
-0.0379179
-6.77697e-05
-0.0344103
-8.28195e-05
-0.031228
-8.14015e-05
-0.473364
3.27464e-07
-0.429592
6.42813e-07
-0.389867
-5.031e-07
-0.353841
6.91861e-08
-0.321131
1.38061e-06
-0.291438
4.4033e-06
-0.26449
8.8525e-06
-0.240033
1.51707e-05
-0.217827
2.36988e-05
-0.197672
3.43491e-05
-0.179374
4.63908e-05
-0.162762
5.84725e-05
-0.147685
6.87489e-05
-0.134002
7.53408e-05
-0.121584
7.69499e-05
-0.11032
7.33068e-05
-0.100103
6.51101e-05
-0.0908349
5.36651e-05
-0.0824287
4.03496e-05
-0.074796
2.63072e-05
-0.0678794
1.23273e-05
-0.0615966
-1.13828e-06
-0.0559008
-1.39558e-05
-0.0507318
-2.61798e-05
-0.0460377
-3.80087e-05
-0.0417798
-4.93485e-05
-0.0379159
-6.06275e-05
-0.0344086
-6.94382e-05
-0.0312256
-8.51359e-05
-0.0283384
-8.20777e-05
-0.473364
-4.96925e-08
-0.429592
2.47046e-07
-0.389865
-1.25203e-06
-0.353841
-7.08039e-07
-0.321132
7.67719e-07
-0.29144
3.43851e-06
-0.264493
7.45477e-06
-0.240038
1.32477e-05
-0.217833
2.12211e-05
-0.197679
3.14855e-05
-0.179383
4.35851e-05
-0.162772
5.63931e-05
-0.147695
6.8214e-05
-0.134011
7.70591e-05
-0.12159
8.12701e-05
-0.110323
8.00826e-05
-0.100103
7.38138e-05
-0.0908334
6.35701e-05
-0.0824259
5.07915e-05
-0.0747924
3.67777e-05
-0.0678756
2.25209e-05
-0.0615929
8.6616e-06
-0.0558975
-4.487e-06
-0.0507288
-1.69224e-05
-0.046035
-2.87934e-05
-0.0417775
-4.03364e-05
-0.0379138
-5.14345e-05
-0.0344067
-6.25509e-05
-0.0312242
-7.0871e-05
-0.0283362
-8.7319e-05
-0.025716
-8.23274e-05
-0.473364
-5.09456e-07
-0.429592
-2.13884e-07
-0.389863
-1.63336e-06
-0.353841
-1.15373e-06
-0.321133
4.19328e-07
-0.291442
2.67618e-06
-0.264496
6.23818e-06
-0.240042
1.15028e-05
-0.217838
1.88804e-05
-0.197687
2.86412e-05
-0.179392
4.05507e-05
-0.162782
5.3769e-05
-0.147705
6.67765e-05
-0.13402
7.76207e-05
-0.121597
8.43701e-05
-0.110327
8.5807e-05
-0.100105
8.17712e-05
-0.0908327
7.31005e-05
-0.0824235
6.11626e-05
-0.074789
4.73955e-05
-0.0678718
3.29622e-05
-0.0615891
1.87023e-05
-0.0558939
5.10402e-06
-0.0507256
-7.66697e-06
-0.0460323
-1.97075e-05
-0.041775
-3.12267e-05
-0.0379116
-4.2498e-05
-0.0344048
-5.33504e-05
-0.0312224
-6.42996e-05
-0.0283349
-7.21952e-05
-0.0257139
-8.93716e-05
-0.0233367
-8.26668e-05
-0.473364
-9.28128e-07
-0.429591
-6.55667e-07
-0.389862
-1.61896e-06
-0.353841
-1.22926e-06
-0.321134
2.89654e-07
-0.291444
2.10307e-06
-0.264498
5.19616e-06
-0.240045
9.93435e-06
-0.217843
1.67001e-05
-0.197694
2.58619e-05
-0.179401
3.74072e-05
-0.162793
5.07313e-05
-0.147716
6.45879e-05
-0.13403
7.71134e-05
-0.121606
8.62531e-05
-0.110333
9.03721e-05
-0.100108
8.8829e-05
-0.090833
8.20678e-05
-0.0824217
7.13163e-05
-0.0747859
5.80493e-05
-0.067868
4.36111e-05
-0.0615851
2.90101e-05
-0.0558901
1.49239e-05
-0.0507222
1.68396e-06
-0.0460293
-1.06565e-05
-0.0417724
-2.22897e-05
-0.0379093
-3.34843e-05
-0.0344028
-4.45005e-05
-0.0312206
-5.51209e-05
-0.0283333
-6.59091e-05
-0.0257128
-7.33153e-05
-0.0233347
-9.13128e-05
-0.0211765
-8.26462e-05
-0.473363
-1.20684e-06
-0.429592
-1.00541e-06
-0.389861
-1.30331e-06
-0.353842
-9.99448e-07
-0.321136
2.98221e-07
-0.291445
1.6821e-06
-0.264501
4.31202e-06
-0.240049
8.52728e-06
-0.217848
1.46856e-05
-0.1977
2.31981e-05
-0.17941
3.423e-05
-0.162803
4.74329e-05
-0.147727
6.17875e-05
-0.134041
7.56609e-05
-0.121616
8.6945e-05
-0.110341
9.372e-05
-0.100112
9.48424e-05
-0.0908344
9.03125e-05
-0.0824207
8.10883e-05
-0.0747832
6.86343e-05
-0.0678644
5.44022e-05
-0.0615811
3.95919e-05
-0.0558862
2.50412e-05
-0.0507185
1.12599e-05
-0.046026
-1.55177e-06
-0.0417696
-1.3458e-05
-0.0379069
-2.47065e-05
-0.0344007
-3.55842e-05
-0.0312188
-4.63487e-05
-0.0283317
-5.67306e-05
-0.0257113
-6.7362e-05
-0.0233337
-7.43506e-05
-0.0211747
-9.31395e-05
-0.0192171
-8.27487e-05
-0.473362
-1.29791e-06
-0.429591
-1.20676e-06
-0.389861
-8.38401e-07
-0.353842
-5.99131e-07
-0.321137
3.51408e-07
-0.291446
1.36482e-06
-0.264502
3.56431e-06
-0.240052
7.27217e-06
-0.217853
1.28316e-05
-0.197706
2.06729e-05
-0.179417
3.10895e-05
-0.162812
4.39601e-05
-0.147738
5.8537e-05
-0.134053
7.33869e-05
-0.121627
8.65362e-05
-0.11035
9.58303e-05
-0.100118
9.97162e-05
-0.0908373
9.76785e-05
-0.0824207
9.03317e-05
-0.0747811
7.90029e-05
-0.067861
6.5235e-05
-0.0615771
5.03769e-05
-0.055882
3.54558e-05
-0.0507146
2.11257e-05
-0.0460225
7.74553e-06
-0.0417666
-4.60762e-06
-0.0379043
-1.60705e-05
-0.0343984
-2.69402e-05
-0.0312168
-3.75228e-05
-0.02833
-4.80422e-05
-0.0257098
-5.82009e-05
-0.0233324
-6.86921e-05
-0.0211738
-7.52209e-05
-0.0192154
-9.48709e-05
-0.0174385
-8.25504e-05
-0.473361
-1.21772e-06
-0.429592
-1.2481e-06
-0.389862
-3.87219e-07
-0.353843
-1.8788e-07
-0.321138
3.68928e-07
-0.291447
1.10162e-06
-0.264504
2.92668e-06
-0.240054
6.15646e-06
-0.217856
1.11382e-05
-0.197712
1.83039e-05
-0.179425
2.8043e-05
-0.162822
4.04204e-05
-0.147749
5.49452e-05
-0.134065
7.04552e-05
-0.121638
8.51048e-05
-0.11036
9.67269e-05
-0.100126
0.000103368
-0.0908416
0.000104035
-0.0824219
9.88828e-05
-0.0747798
8.9025e-05
-0.067858
7.59963e-05
-0.0615731
6.13052e-05
-0.0558778
4.61374e-05
-0.0507105
3.13226e-05
-0.0460187
1.73408e-05
-0.0417633
4.41555e-06
-0.0379015
-7.46198e-06
-0.034396
-1.851e-05
-0.0312148
-2.90258e-05
-0.0283282
-3.93102e-05
-0.0257083
-4.95878e-05
-0.023331
-5.95298e-05
-0.0211726
-6.98954e-05
-0.0192146
-7.60322e-05
-0.0174369
-9.64946e-05
-0.015825
-8.24824e-05
-0.47336
-1.02372e-06
-0.429591
-1.15396e-06
-0.389863
-6.37188e-08
-0.353844
1.07329e-07
-0.321139
3.03206e-07
-0.291448
8.53325e-07
-0.264505
2.37676e-06
-0.240057
5.1719e-06
-0.21786
9.6047e-06
-0.197717
1.61063e-05
-0.179432
2.51245e-05
-0.162831
3.68903e-05
-0.14776
5.11376e-05
-0.134077
6.69778e-05
-0.121651
8.28065e-05
-0.110371
9.64482e-05
-0.100135
0.000105774
-0.0908475
0.000109264
-0.0824245
0.000106604
-0.0747795
9.85565e-05
-0.0678555
8.65827e-05
-0.0615694
7.22767e-05
-0.0558735
5.70196e-05
-0.0507061
4.18045e-05
-0.0460147
2.72616e-05
-0.0417596
1.37116e-05
-0.0378983
1.27395e-06
-0.0343933
-1.01406e-05
-0.0312125
-2.07757e-05
-0.0283263
-3.09363e-05
-0.0257066
-4.09406e-05
-0.0233296
-5.09902e-05
-0.0211713
-6.07396e-05
-0.0192135
-7.10002e-05
-0.0174362
-7.67159e-05
-0.0158234
-9.80243e-05
-0.0143606
-8.21649e-05
-0.473359
-7.90503e-07
-0.429592
-9.7975e-07
-0.389864
8.02614e-08
-0.353844
2.18604e-07
-0.321139
1.45526e-07
-0.291448
5.98875e-07
-0.264506
1.89271e-06
-0.240058
4.30945e-06
-0.217863
8.23088e-06
-0.197721
1.40945e-05
-0.179438
2.23762e-05
-0.162839
3.34336e-05
-0.14777
4.7223e-05
-0.134089
6.31001e-05
-0.121663
7.97328e-05
-0.110384
9.51036e-05
-0.100145
0.000106902
-0.090855
0.000113282
-0.0824286
0.000113344
-0.0747803
0.000107455
-0.0678539
9.68629e-05
-0.061566
8.32118e-05
-0.0558693
6.80349e-05
-0.0507016
5.25385e-05
-0.0460103
3.74944e-05
-0.0417557
2.33436e-05
-0.0378949
1.02787e-05
-0.0343904
-1.6706e-06
-0.03121
-1.26282e-05
-0.0283242
-2.28797e-05
-0.0257049
-3.27036e-05
-0.0233281
-4.24281e-05
-0.0211701
-5.22647e-05
-0.0192123
-6.18395e-05
-0.0174352
-7.2007e-05
-0.0158228
-7.73506e-05
-0.0143591
-9.94504e-05
-0.0130316
-8.19817e-05
-0.473359
-5.84464e-07
-0.429591
-7.85319e-07
-0.389865
6.24488e-08
-0.353844
1.50878e-07
-0.321138
-7.92218e-08
-0.291448
3.36355e-07
-0.264507
1.46296e-06
-0.24006
3.55867e-06
-0.217866
7.01586e-06
-0.197725
1.22731e-05
-0.179444
1.9823e-05
-0.162847
3.01105e-05
-0.14778
4.32818e-05
-0.134101
5.89518e-05
-0.121676
7.60437e-05
-0.110397
9.27653e-05
-0.100157
0.000106823
-0.0908641
0.000116006
-0.0824343
0.000118986
-0.0747826
0.000115565
-0.0678531
0.000106717
-0.0615632
9.40122e-05
-0.0558652
7.91298e-05
-0.0506971
6.34614e-05
-0.0460058
4.79898e-05
-0.0417515
3.32752e-05
-0.0378911
1.95958e-05
-0.0343871
7.03594e-06
-0.0312072
-4.42883e-06
-0.0283218
-1.49523e-05
-0.0257029
-2.48155e-05
-0.0233265
-3.43018e-05
-0.0211687
-4.3774e-05
-0.0192112
-5.34218e-05
-0.0174342
-6.28429e-05
-0.0158219
-7.29294e-05
-0.0143586
-7.7881e-05
-0.0130302
-0.000100785
-0.0118257
-8.15986e-05
-0.473359
-4.48749e-07
-0.429592
-6.25854e-07
-0.389866
-6.50708e-08
-0.353844
-4.08346e-08
-0.321138
-3.25485e-07
-0.291448
7.8383e-08
-0.264508
1.07981e-06
-0.240062
2.90958e-06
-0.217868
5.95003e-06
-0.197729
1.06465e-05
-0.179449
1.74838e-05
-0.162854
2.69707e-05
-0.147789
3.94061e-05
-0.134112
5.4638e-05
-0.121689
7.18784e-05
-0.11041
8.95741e-05
-0.10017
0.000105551
-0.0908747
0.000117439
-0.0824417
0.000123386
-0.0747863
0.000122739
-0.0678535
0.000115987
-0.061561
0.000104574
-0.0558614
9.02267e-05
-0.0506925
7.45429e-05
-0.046001
5.87097e-05
-0.041747
4.34825e-05
-0.0378871
2.92164e-05
-0.0343836
1.60528e-05
-0.0312042
4.00143e-06
-0.0283193
-6.99988e-06
-0.0257008
-1.70919e-05
-0.0233247
-2.6594e-05
-0.0211672
-3.57682e-05
-0.01921
-4.50003e-05
-0.0174331
-5.44786e-05
-0.0158209
-6.37597e-05
-0.0143577
-7.37689e-05
-0.0130297
-7.83671e-05
-0.0118244
-0.000102029
-0.0107317
-8.13667e-05
-0.473358
-3.98848e-07
-0.429591
-5.30608e-07
-0.389866
-2.30425e-07
-0.353844
-2.78746e-07
-0.321137
-5.46701e-07
-0.291448
-1.53871e-07
-0.264509
7.42792e-07
-0.240063
2.35098e-06
-0.21787
5.02473e-06
-0.197732
9.2021e-06
-0.179454
1.53665e-05
-0.16286
2.40447e-05
-0.147798
3.56644e-05
-0.134123
5.02779e-05
-0.121702
6.7368e-05
-0.110424
8.56821e-05
-0.100183
0.000103209
-0.0908867
0.000117546
-0.0824507
0.0001265
-0.0747917
0.000128801
-0.0678553
0.000124529
-0.0615598
0.000114768
-0.0558581
0.000101259
-0.050688
8.57398e-05
-0.0459961
6.96438e-05
-0.0417422
5.39208e-05
-0.0378827
3.90911e-05
-0.0343797
2.53432e-05
-0.0312009
1.27116e-05
-0.0283164
1.15433e-06
-0.0256984
-9.39174e-06
-0.0233228
-1.90731e-05
-0.0211656
-2.82112e-05
-0.0192086
-3.70853e-05
-0.017432
-4.61118e-05
-0.01582
-5.54406e-05
-0.0143569
-6.45906e-05
-0.0130289
-7.45319e-05
-0.011824
-7.87755e-05
-0.0107305
-0.000103187
-0.00973882
-8.09584e-05
-0.473358
-4.27914e-07
-0.429591
-5.08091e-07
-0.389867
-3.74215e-07
-0.353844
-4.89581e-07
-0.321137
-7.08445e-07
-0.291449
-3.41885e-07
-0.264509
4.53706e-07
-0.240064
1.87101e-06
-0.217872
4.22424e-06
-0.197735
7.93212e-06
-0.179458
1.34628e-05
-0.162866
2.13588e-05
-0.147806
3.21134e-05
-0.134133
4.59694e-05
-0.121714
6.2656e-05
-0.110438
8.12223e-05
-0.100198
9.99248e-05
-0.0908999
0.000116393
-0.0824614
0.00012822
-0.0747989
0.000133655
-0.0678587
0.000132139
-0.0615598
0.00012445
-0.0558554
0.000112118
-0.0506837
9.70119e-05
-0.0459912
8.07685e-05
-0.0417371
6.45966e-05
-0.0378779
4.91916e-05
-0.0343755
3.48764e-05
-0.0311972
2.16876e-05
-0.0283133
9.58347e-06
-0.0256957
-1.49069e-06
-0.0233206
-1.16018e-05
-0.0211638
-2.08744e-05
-0.0192071
-2.96862e-05
-0.0174308
-3.82958e-05
-0.015819
-4.71292e-05
-0.014356
-5.63188e-05
-0.0130282
-6.53499e-05
-0.0118233
-7.52279e-05
-0.0107301
-7.91443e-05
-0.00973772
-0.000104265
-0.00883692
-7.99808e-05
-0.473358
-5.13379e-07
-0.429591
-5.43509e-07
-0.389866
-4.59171e-07
-0.353843
-6.22471e-07
-0.321137
-7.9534e-07
-0.291449
-4.74321e-07
-0.26451
2.14966e-07
-0.240065
1.46079e-06
-0.217874
3.53223e-06
-0.197738
6.81757e-06
-0.179462
1.17657e-05
-0.162872
1.89085e-05
-0.147814
2.8797e-05
-0.134143
4.17941e-05
-0.121726
5.78741e-05
-0.110452
7.63696e-05
-0.100212
9.58349e-05
-0.0909141
0.000114083
-0.0824736
0.000128561
-0.0748078
0.000137133
-0.0678637
0.000138689
-0.061561
0.000133419
-0.0558537
0.000122688
-0.0506799
0.00010829
-0.0459862
9.20818e-05
-0.0417319
7.55128e-05
-0.0378729
5.95352e-05
-0.0343709
4.46084e-05
-0.0311932
3.08674e-05
-0.0283099
1.82443e-05
-0.0256928
6.65585e-06
-0.0233181
-3.95403e-06
-0.0211618
-1.36359e-05
-0.0192055
-2.25285e-05
-0.0174294
-3.1023e-05
-0.0158179
-3.9385e-05
-0.0143551
-4.80506e-05
-0.0130274
-5.71144e-05
-0.0118226
-6.60313e-05
-0.0107295
-7.58578e-05
-0.00973737
-7.94654e-05
-0.00883651
-0.000104648
-0.00801411
-7.53378e-05
-0.473357
-6.09281e-07
-0.429591
-6.12742e-07
-0.389867
-4.72725e-07
-0.353843
-6.60016e-07
-0.321136
-8.09226e-07
-0.291449
-5.51168e-07
-0.26451
2.64763e-08
-0.240066
1.11129e-06
-0.217875
2.934e-06
-0.19774
5.84123e-06
-0.179465
1.02586e-05
-0.162877
1.66992e-05
-0.14782
2.57272e-05
-0.134152
3.78235e-05
-0.121738
5.31295e-05
-0.110465
7.12759e-05
-0.100227
9.11178e-05
-0.0909289
0.000110718
-0.082487
0.000127566
-0.0748184
0.000139189
-0.0678705
0.000143966
-0.0615639
0.000141532
-0.055853
0.000132775
-0.0506767
0.000119479
-0.0459815
0.000103543
-0.0417265
8.66935e-05
-0.0378675
7.01371e-05
-0.0343659
5.45647e-05
-0.0311888
4.02148e-05
-0.0283061
2.70864e-05
-0.0256896
1.50262e-05
-0.0233154
3.93598e-06
-0.0211595
-6.21939e-06
-0.0192036
-1.54965e-05
-0.0174279
-2.40227e-05
-0.0158166
-3.22449e-05
-0.0143541
-4.03895e-05
-0.0130265
-4.88923e-05
-0.0118218
-5.78387e-05
-0.0107288
-6.66577e-05
-0.00973679
-7.64371e-05
-0.00883609
-7.98513e-05
-0.0080179
-0.000100849
-0.00725504
-6.80321e-05
-0.473357
-6.75968e-07
-0.429591
-6.7395e-07
-0.389867
-4.25037e-07
-0.353843
-6.07351e-07
-0.321136
-7.66135e-07
-0.291449
-5.80004e-07
-0.264511
-1.14684e-07
-0.240067
8.17455e-07
-0.217876
2.41573e-06
-0.197742
4.98664e-06
-0.179468
8.92258e-06
-0.162881
1.47151e-05
-0.147827
2.2922e-05
-0.13416
3.40859e-05
-0.121748
4.85266e-05
-0.110478
6.60833e-05
-0.100242
8.59517e-05
-0.0909443
0.000106479
-0.0825016
0.0001253
-0.0748307
0.0001398
-0.0678792
0.000147855
-0.0615684
0.000148533
-0.0558537
0.000142235
-0.0506743
0.000130417
-0.0459771
0.000115098
-0.0417211
9.81387e-05
-0.0378619
8.10527e-05
-0.0343606
6.47771e-05
-0.031184
4.97578e-05
-0.0283019
3.60512e-05
-0.025686
2.35344e-05
-0.0233124
1.20189e-05
-0.021157
1.41253e-06
-0.0192016
-8.30858e-06
-0.0174262
-1.71962e-05
-0.0158153
-2.53968e-05
-0.014353
-3.33539e-05
-0.0130256
-4.12907e-05
-0.0118211
-4.96505e-05
-0.0107282
-5.8494e-05
-0.00973621
-6.72165e-05
-0.00883558
-7.69431e-05
-0.00801862
-7.91093e-05
-0.0072642
-9.16698e-05
-0.00656033
-6.0014e-05
-0.473356
-6.67331e-07
-0.429591
-6.98743e-07
-0.389867
-3.4508e-07
-0.353843
-4.92171e-07
-0.321136
-6.8499e-07
-0.291449
-5.75055e-07
-0.264511
-2.14626e-07
-0.240067
5.74556e-07
-0.217878
1.96928e-06
-0.197744
4.23801e-06
-0.179471
7.74252e-06
-0.162885
1.29408e-05
-0.147832
2.03762e-05
-0.134168
3.06216e-05
-0.121758
4.41118e-05
-0.11049
6.09233e-05
-0.100256
8.04976e-05
-0.0909599
0.000101542
-0.0825171
0.00012191
-0.0748443
0.000138972
-0.0678897
0.000150278
-0.0615749
0.000154271
-0.055856
0.000150804
-0.0506731
0.000140969
-0.0459733
0.00012661
-0.0417158
0.000109821
-0.037856
9.23079e-05
-0.0343548
7.5322e-05
-0.0311787
5.95328e-05
-0.0282973
4.51669e-05
-0.0256821
3.21234e-05
-0.0233091
2.02172e-05
-0.0211542
9.23251e-06
-0.0191992
-9.08933e-07
-0.0174243
-1.02119e-05
-0.0158137
-1.87471e-05
-0.0143517
-2.66388e-05
-0.0130246
-3.43677e-05
-0.0118202
-4.21199e-05
-0.0107275
-5.03438e-05
-0.0097356
-5.90928e-05
-0.00883504
-6.77486e-05
-0.00801862
-7.69465e-05
-0.00726968
-7.36063e-05
-0.00657118
-8.08162e-05
-0.0059279
-5.24579e-05
-0.473356
-5.51852e-07
-0.429591
-6.57094e-07
-0.389868
-2.60667e-07
-0.353843
-3.57372e-07
-0.321136
-5.86652e-07
-0.29145
-5.49066e-07
-0.264511
-2.80755e-07
-0.240068
3.78149e-07
-0.217879
1.58926e-06
-0.197745
3.58573e-06
-0.179473
6.69875e-06
-0.162889
1.136e-05
-0.147837
1.8077e-05
-0.134175
2.74367e-05
-0.121768
3.99535e-05
-0.110502
5.587e-05
-0.10027
7.49247e-05
-0.0909755
9.6091e-05
-0.0825331
0.000117565
-0.0748592
0.000136805
-0.0679019
0.000151161
-0.0615832
0.000158596
-0.05586
0.000158289
-0.0506731
0.000150869
-0.0459703
0.00013797
-0.0417108
0.000121646
-0.0378501
0.000103919
-0.0343488
8.62594e-05
-0.0311731
6.96387e-05
-0.0282923
5.44776e-05
-0.0256778
4.08169e-05
-0.0233054
2.84476e-05
-0.0211511
1.7128e-05
-0.0191966
6.65244e-06
-0.0174222
-3.0421e-06
-0.015812
-1.19599e-05
-0.0143503
-2.01647e-05
-0.0130235
-2.7783e-05
-0.0118193
-3.52834e-05
-0.0107267
-4.28618e-05
-0.00973497
-5.09674e-05
-0.00883449
-5.96341e-05
-0.00801816
-6.8177e-05
-0.00727341
-7.32028e-05
-0.00657931
-6.54573e-05
-0.00593861
-7.00892e-05
-0.0053546
-4.55534e-05
-0.473355
-3.37119e-07
-0.429591
-5.36222e-07
-0.389868
-2.01828e-07
-0.353843
-2.39683e-07
-0.321136
-4.92489e-07
-0.29145
-5.14298e-07
-0.264512
-3.2045e-07
-0.240069
2.24659e-07
-0.21788
1.26885e-06
-0.197747
3.02365e-06
-0.179476
5.78173e-06
-0.162892
9.95063e-06
-0.147842
1.6012e-05
-0.134182
2.45289e-05
-0.121776
3.60734e-05
-0.110513
5.10195e-05
-0.100284
6.93271e-05
-0.0909909
9.03176e-05
-0.0825494
0.000112445
-0.0748751
0.000133435
-0.0679156
0.000150551
-0.0615934
0.000161374
-0.0558659
0.000164501
-0.0506748
0.000159918
-0.0459684
0.000148931
-0.0417064
0.000133532
-0.0378443
0.000115819
-0.0343425
9.76273e-05
-0.031167
8.01552e-05
-0.0282867
6.40977e-05
-0.0256729
4.96574e-05
-0.0233013
3.67273e-05
-0.0211477
2.50141e-05
-0.0191938
1.42696e-05
-0.0174198
4.2861e-06
-0.01581
-4.99102e-06
-0.0143487
-1.35499e-05
-0.0130222
-2.14589e-05
-0.0118183
-2.88132e-05
-0.0107259
-3.61184e-05
-0.00973429
-4.35458e-05
-0.00883391
-5.15416e-05
-0.00801765
-6.01359e-05
-0.00727498
-6.66037e-05
-0.00658715
-6.53652e-05
-0.00594707
-5.69766e-05
-0.00536434
-6.0354e-05
-0.00483618
-3.96196e-05
-0.473355
-4.71895e-08
-0.429591
-3.53108e-07
-0.389868
-1.86738e-07
-0.353843
-1.75519e-07
-0.321136
-4.17062e-07
-0.29145
-4.80761e-07
-0.264512
-3.4033e-07
-0.240069
1.0912e-07
-0.21788
1.00601e-06
-0.197748
2.54018e-06
-0.179478
4.98316e-06
-0.162895
8.70084e-06
-0.147846
1.41551e-05
-0.134187
2.18916e-05
-0.121784
3.2485e-05
-0.110523
4.64192e-05
-0.100296
6.38413e-05
-0.0910059
8.43443e-05
-0.0825659
0.000106763
-0.0748917
0.000129023
-0.0679307
0.000148524
-0.0616054
0.000162573
-0.0558738
0.000169238
-0.0506782
0.000167891
-0.0459677
0.00015929
-0.0417027
0.000145256
-0.0378387
0.000127962
-0.0343361
0.000109403
-0.0311605
9.11566e-05
-0.0282807
7.41315e-05
-0.0256676
5.87725e-05
-0.0232967
4.50999e-05
-0.0211438
3.28982e-05
-0.0191906
2.18322e-05
-0.0174172
1.16338e-05
-0.0158078
2.11279e-06
-0.0143469
-6.77644e-06
-0.0130207
-1.50114e-05
-0.0118171
-2.26392e-05
-0.0107249
-2.97604e-05
-0.00973352
-3.6871e-05
-0.00883329
-4.41584e-05
-0.00801712
-5.20624e-05
-0.00727523
-5.98751e-05
-0.00659358
-6.0149e-05
-0.0059558
-5.66226e-05
-0.00537214
-4.91748e-05
-0.00484467
-5.1851e-05
-0.00436815
-3.44428e-05
-0.473355
2.52249e-07
-0.429591
-1.32185e-07
-0.389869
-2.16934e-07
-0.353843
-1.85984e-07
-0.321136
-3.75059e-07
-0.29145
-4.54315e-07
-0.264512
-3.47996e-07
-0.240069
2.64597e-08
-0.217881
7.93665e-07
-0.197749
2.13346e-06
-0.179479
4.2867e-06
-0.162898
7.60239e-06
-0.14785
1.24953e-05
-0.134193
1.94988e-05
-0.121792
2.91928e-05
-0.110533
4.21008e-05
-0.100309
5.85389e-05
-0.0910204
7.83414e-05
-0.0825822
0.000100654
-0.0749087
0.000123782
-0.0679469
0.000145209
-0.0616191
0.000162212
-0.0558836
0.000172405
-0.0506835
0.000174544
-0.0459687
0.000168817
-0.0417001
0.00015664
-0.0378336
0.000140165
-0.0343297
0.00012157
-0.0311537
0.000102643
-0.0282742
8.46677e-05
-0.0256618
6.82791e-05
-0.0232917
5.37029e-05
-0.0211396
4.0819e-05
-0.019187
2.9337e-05
-0.0174142
1.88884e-05
-0.0158054
9.21802e-06
-0.0143449
1.29646e-07
-0.0130191
-8.40749e-06
-0.0118158
-1.63386e-05
-0.0107238
-2.37127e-05
-0.00973267
-3.06105e-05
-0.00883259
-3.75595e-05
-0.00801655
-4.47276e-05
-0.00727489
-5.23977e-05
-0.00659811
-5.53453e-05
-0.00596415
-5.18024e-05
-0.00538039
-4.83734e-05
-0.00485143
-4.23942e-05
-0.0043754
-4.46094e-05
-0.00394591
-3.01167e-05
-0.473356
5.03856e-07
-0.429591
8.09317e-08
-0.389868
-2.8265e-07
-0.353843
-2.65116e-07
-0.321135
-3.74912e-07
-0.29145
-4.40557e-07
-0.264512
-3.49059e-07
-0.24007
-3.12858e-08
-0.217882
6.26695e-07
-0.19775
1.79193e-06
-0.179481
3.69037e-06
-0.1629
6.63203e-06
-0.147853
1.10234e-05
-0.134198
1.73419e-05
-0.121798
2.61756e-05
-0.110542
3.8089e-05
-0.10032
5.34804e-05
-0.0910343
7.24155e-05
-0.0825982
9.43285e-05
-0.0749259
0.000117852
-0.0679639
0.000140795