/*--------------------------------*- C++ -*----------------------------------*\
  =========                 |
  \\      /  F ield         | OpenFOAM: The Open Source CFD Toolbox
   \\    /   O peration     | Website:  https://openfoam.org
    \\  /    A nd           | Version:  dev
     \\/     M anipulation  |
\*---------------------------------------------------------------------------*/
FoamFile
{
    version     2.0;
    format      ascii;
    class       volVectorField;
    location    "475";
    object      U;
}
// * * * * * * * * * * * * * * * * * * * * * * * * * * * * * * * * * * * * * //

dimensions      [0 1 -1 0 0 0 0];

internalField   nonuniform List<vector> 
29380
(
(51.0558 0.000509396 0)
(51.0573 0.000152188 0)
(51.0594 0.00325729 0)
(51.0587 0.000576776 0)
(51.0614 0.00418474 0)
(51.0673 0.00320001 0)
(51.06 0.00122833 0)
(51.0631 0.00386202 0)
(51.0662 0.00381064 0)
(51.0711 0.00150744 0)
(51.0609 0.00214073 0)
(51.0644 0.00307599 0)
(51.0649 0.00320924 0)
(51.0698 0.00159678 0)
(51.0733 0.00146023 0)
(51.0613 0.00312912 0)
(51.0651 0.0018597 0)
(51.0636 0.00250506 0)
(51.0688 0.00124455 0)
(51.0723 0.00159849 0)
(51.0756 0.000646769 0)
(51.0613 0.00399127 0)
(51.0653 0.000525081 0)
(51.0627 0.0017112 0)
(51.0682 0.0011546 0)
(51.0719 0.00144109 0)
(51.0745 0.000858186 0)
(51.077 0.000100774 0)
(51.0609 0.00455168 0)
(51.0651 -0.000570483 0)
(51.0622 0.00108938 0)
(51.0679 0.00125846 0)
(51.0718 0.00143822 0)
(51.0739 0.00105785 0)
(51.0759 0.000334435 0)
(51.0783 -0.000508314 0)
(51.0604 0.00470475 0)
(51.0645 -0.00113283 0)
(51.0624 0.000842983 0)
(51.068 0.00164237 0)
(51.072 0.00153658 0)
(51.0735 0.0014559 0)
(51.0754 0.000606497 0)
(51.0771 -0.00018195 0)
(51.0793 -0.00117436 0)
(51.0599 0.00444695 0)
(51.064 -0.00102285 0)
(51.0631 0.00105036 0)
(51.0685 0.00227942 0)
(51.0724 0.00182393 0)
(51.0734 0.0019637 0)
(51.0749 0.00109875 0)
(51.0764 0.000242987 0)
(51.0779 -0.000826108 0)
(51.0801 -0.00181012 0)
(51.0595 0.00387038 0)
(51.0636 -0.000299054 0)
(51.0642 0.00165859 0)
(51.0692 0.00305951 0)
(51.0728 0.0023114 0)
(51.0735 0.00258897 0)
(51.0747 0.0017239 0)
(51.0757 0.000910294 0)
(51.077 -0.000352729 0)
(51.0784 -0.00141692 0)
(51.0806 -0.00252278 0)
(51.0594 0.00313517 0)
(51.0634 0.000806257 0)
(51.0653 0.00249606 0)
(51.07 0.00382495 0)
(51.0733 0.00295776 0)
(51.0739 0.00329277 0)
(51.0747 0.00247563 0)
(51.0754 0.00172224 0)
(51.0762 0.000392887 0)
(51.0775 -0.000878968 0)
(51.0788 -0.0021184 0)
(51.081 -0.0031909 0)
(51.0594 0.00242275 0)
(51.0635 0.0019662 0)
(51.0664 0.00333033 0)
(51.0707 0.00441341 0)
(51.0736 0.00366744 0)
(51.0743 0.00402853 0)
(51.0748 0.00331425 0)
(51.0752 0.00266059 0)
(51.0756 0.001316 0)
(51.0764 -4.51935e-05 0)
(51.0777 -0.00155032 0)
(51.079 -0.00277521 0)
(51.0812 -0.00389103 0)
(51.0597 0.0018903 0)
(51.0638 0.0028687 0)
(51.0672 0.00393349 0)
(51.0713 0.00470669 0)
(51.0739 0.00431664 0)
(51.0748 0.00473597 0)
(51.0751 0.00419991 0)
(51.0752 0.00368541 0)
(51.0753 0.00239799 0)
(51.0757 0.000990223 0)
(51.0764 -0.000669003 0)
(51.0777 -0.00218374 0)
(51.0791 -0.0034792 0)
(51.0814 -0.00454732 0)
(51.0599 0.00163259 0)
(51.0642 0.00331086 0)
(51.0677 0.0041452 0)
(51.0717 0.00465627 0)
(51.0742 0.00478813 0)
(51.0753 0.00535331 0)
(51.0755 0.00508571 0)
(51.0754 0.00476519 0)
(51.0751 0.00360265 0)
(51.0751 0.002212 0)
(51.0755 0.000438502 0)
(51.0763 -0.00126391 0)
(51.0776 -0.0028823 0)
(51.079 -0.00414305 0)
(51.0814 -0.00521337 0)
(51.0602 0.00166238 0)
(51.0646 0.00324822 0)
(51.0679 0.00390629 0)
(51.072 0.00428658 0)
(51.0745 0.00500865 0)
(51.0759 0.00583006 0)
(51.0761 0.00592382 0)
(51.0758 0.00586396 0)
(51.0752 0.00490017 0)
(51.0748 0.00358955 0)
(51.0747 0.00176408 0)
(51.0751 -9.67588e-05 0)
(51.0761 -0.00194828 0)
(51.0775 -0.00354515 0)
(51.0789 -0.00482119 0)
(51.0814 -0.0058248 0)
(51.0604 0.00191097 0)
(51.0649 0.00278223 0)
(51.0679 0.0032673 0)
(51.0722 0.00367316 0)
(51.0749 0.0049675 0)
(51.0765 0.00613886 0)
(51.0767 0.00667221 0)
(51.0764 0.00694485 0)
(51.0755 0.00625794 0)
(51.0747 0.00510063 0)
(51.0741 0.00328598 0)
(51.0741 0.00131527 0)
(51.0747 -0.000749568 0)
(51.0757 -0.00260822 0)
(51.0772 -0.00422616 0)
(51.0788 -0.00545331 0)
(51.0814 -0.00642456 0)
(51.0605 0.00224892 0)
(51.065 0.00209827 0)
(51.0678 0.00236587 0)
(51.0724 0.00292015 0)
(51.0754 0.00471936 0)
(51.0772 0.00628101 0)
(51.0775 0.00729963 0)
(51.0772 0.00796968 0)
(51.076 0.00763887 0)
(51.0748 0.00671814 0)
(51.0738 0.00499025 0)
(51.0734 0.002958 0)
(51.0735 0.000716991 0)
(51.0742 -0.00139375 0)
(51.0754 -0.00330008 0)
(51.077 -0.00486227 0)
(51.0786 -0.00608455 0)
(51.0813 -0.00696217 0)
(51.0606 0.00252374 0)
(51.0649 0.00138603 0)
(51.0677 0.00139029 0)
(51.0727 0.00213932 0)
(51.076 0.00436105 0)
(51.078 0.00628493 0)
(51.0784 0.00778935 0)
(51.0781 0.00890334 0)
(51.0768 0.00900305 0)
(51.0752 0.00840908 0)
(51.0738 0.00685702 0)
(51.0728 0.00482576 0)
(51.0725 0.00244498 0)
(51.0728 0.000104579 0)
(51.0737 -0.00208896 0)
(51.075 -0.00395633 0)
(51.0768 -0.00549992 0)
(51.0785 -0.00666708 0)
(51.0812 -0.00747107 0)
(51.0606 0.00260354 0)
(51.0648 0.000776514 0)
(51.0676 0.000532249 0)
(51.073 0.00144633 0)
(51.0766 0.00400049 0)
(51.0788 0.00619567 0)
(51.0795 0.00813821 0)
(51.0792 0.00971555 0)
(51.0778 0.0103075 0)
(51.076 0.0101315 0)
(51.074 0.00885724 0)
(51.0725 0.00690743 0)
(51.0717 0.00443714 0)
(51.0716 0.00188727 0)
(51.0721 -0.000584514 0)
(51.0731 -0.00276098 0)
(51.0746 -0.00462387 0)
(51.0765 -0.00608923 0)
(51.0783 -0.00723373 0)
(51.081 -0.00792026 0)
(51.0606 0.00241697 0)
(51.0646 0.000323187 0)
(51.0675 -5.50576e-05 0)
(51.0734 0.000952704 0)
(51.0773 0.00371854 0)
(51.0797 0.00606043 0)
(51.0806 0.0083534 0)
(51.0805 0.0103833 0)
(51.0791 0.0115103 0)
(51.077 0.0118358 0)
(51.0746 0.0109491 0)
(51.0726 0.00918231 0)
(51.0711 0.00669292 0)
(51.0705 0.00396506 0)
(51.0706 0.00122095 0)
(51.0713 -0.00126896 0)
(51.0726 -0.00345468 0)
(51.0742 -0.00525177 0)
(51.0762 -0.00666 0)
(51.0781 -0.00775493 0)
(51.0808 -0.00833415 0)
(51.0605 0.00197263 0)
(51.0643 2.31018e-05 0)
(51.0675 -0.000291612 0)
(51.0738 0.000755329 0)
(51.0781 0.00354675 0)
(51.0807 0.00591215 0)
(51.0817 0.00844607 0)
(51.0818 0.0108904 0)
(51.0805 0.0125714 0)
(51.0783 0.0134673 0)
(51.0755 0.0130784 0)
(51.0729 0.0116152 0)
(51.0709 0.00920268 0)
(51.0697 0.00634839 0)
(51.0693 0.00334571 0)
(51.0697 0.000533908 0)
(51.0706 -0.00198899 0)
(51.0721 -0.00411724 0)
(51.0739 -0.00586797 0)
(51.076 -0.00718019 0)
(51.0778 -0.00825414 0)
(51.0806 -0.00869781 0)
(51.0604 0.00135417 0)
(51.0641 -0.000136375 0)
(51.0676 -0.000185749 0)
(51.0743 0.000902288 0)
(51.0788 0.00345692 0)
(51.0815 0.00576 0)
(51.0829 0.00842656 0)
(51.0832 0.0112275 0)
(51.0821 0.013456 0)
(51.0798 0.0149704 0)
(51.0767 0.0151813 0)
(51.0736 0.0141549 0)
(51.0709 0.0119418 0)
(51.0691 0.00904137 0)
(51.0682 0.00581159 0)
(51.0681 0.00267203 0)
(51.0688 -0.000207215 0)
(51.07 -0.00268982 0)
(51.0716 -0.00477382 0)
(51.0736 -0.00644014 0)
(51.0757 -0.007669 0)
(51.0775 -0.00871831 0)
(51.0804 -0.00902617 0)
(51.0603 0.000687728 0)
(51.064 -0.000144881 0)
(51.0677 0.000168958 0)
(51.0747 0.00135982 0)
(51.0795 0.00337633 0)
(51.0823 0.00558672 0)
(51.084 0.00830047 0)
(51.0847 0.0113911 0)
(51.0837 0.0141368 0)
(51.0815 0.0162938 0)
(51.0783 0.0171895 0)
(51.0747 0.0167362 0)
(51.0713 0.0148677 0)
(51.0688 0.0120341 0)
(51.0672 0.00863626 0)
(51.0667 0.00517715 0)
(51.0669 0.0019184 0)
(51.0679 -0.000944957 0)
(51.0694 -0.00339348 0)
(51.0712 -0.00539127 0)
(51.0732 -0.00698449 0)
(51.0753 -0.00811092 0)
(51.0773 -0.00916224 0)
(51.0802 -0.00931031 0)
(51.0603 9.79761e-05 0)
(51.064 3.59159e-05 0)
(51.0679 0.000620764 0)
(51.0751 0.0019847 0)
(51.0801 0.00321179 0)
(51.083 0.0053579 0)
(51.0851 0.00806966 0)
(51.0861 0.0113842 0)
(51.0855 0.0145965 0)
(51.0834 0.0173954 0)
(51.0801 0.0190372 0)
(51.0761 0.0192842 0)
(51.0722 0.0179192 0)
(51.0689 0.0152975 0)
(51.0666 0.0118257 0)
(51.0654 0.00808026 0)
(51.0652 0.00442737 0)
(51.0659 0.00114604 0)
(51.0671 -0.0016976 0)
(51.0688 -0.00406567 0)
(51.0708 -0.00598224 0)
(51.0728 -0.00748386 0)
(51.075 -0.00852035 0)
(51.077 -0.00957803 0)
(51.08 -0.00956108 0)
(51.0603 -0.000334523 0)
(51.0641 0.000435342 0)
(51.0681 0.000999955 0)
(51.0754 0.00254292 0)
(51.0805 0.00288663 0)
(51.0836 0.00503568 0)
(51.0861 0.00773454 0)
(51.0874 0.0112169 0)
(51.0872 0.0148308 0)
(51.0855 0.0182471 0)
(51.0822 0.0206677 0)
(51.078 0.0217218 0)
(51.0734 0.0210209 0)
(51.0694 0.0187816 0)
(51.0663 0.015367 0)
(51.0644 0.0114033 0)
(51.0637 0.00736157 0)
(51.0639 0.00362812 0)
(51.0649 0.000341289 0)
(51.0664 -0.00242858 0)
(51.0683 -0.00471587 0)
(51.0703 -0.00652685 0)
(51.0725 -0.00795277 0)
(51.0747 -0.00888889 0)
(51.0768 -0.00997715 0)
(51.0799 -0.00977281 0)
(51.0603 -0.000593028 0)
(51.0642 0.00102571 0)
(51.0683 0.00116661 0)
(51.0755 0.00276497 0)
(51.0808 0.00236734 0)
(51.0841 0.00459717 0)
(51.0869 0.00729965 0)
(51.0887 0.0109073 0)
(51.089 0.01485 0)
(51.0876 0.0188375 0)
(51.0845 0.022039 0)
(51.0801 0.0239766 0)
(51.0751 0.0240885 0)
(51.0703 0.0224164 0)
(51.0664 0.0192249 0)
(51.0637 0.0151513 0)
(51.0623 0.0107582 0)
(51.062 0.00655211 0)
(51.0626 0.00277185 0)
(51.064 -0.000455499 0)
(51.0658 -0.00314435 0)
(51.0678 -0.00532079 0)
(51.0699 -0.00703876 0)
(51.0721 -0.00838272 0)
(51.0744 -0.00922824 0)
(51.0767 -0.0103544 0)
(51.0798 -0.00995236 0)
(51.0604 -0.000719843 0)
(51.0643 0.00168682 0)
(51.0684 0.00104682 0)
(51.0755 0.0024437 0)
(51.0809 0.00168282 0)
(51.0846 0.00404562 0)
(51.0877 0.00677695 0)
(51.0899 0.0104798 0)
(51.0907 0.0146785 0)
(51.0897 0.019173 0)
(51.087 0.0231276 0)
(51.0826 0.0259888 0)
(51.0772 0.0270371 0)
(51.0717 0.0261177 0)
(51.0669 0.0233419 0)
(51.0633 0.0193076 0)
(51.0611 0.0146405 0)
(51.0602 0.00996834 0)
(51.0604 0.00565148 0)
(51.0615 0.00190436 0)
(51.0632 -0.00124758 0)
(51.0652 -0.00381801 0)
(51.0673 -0.00589257 0)
(51.0695 -0.00750915 0)
(51.0718 -0.00878488 0)
(51.0742 -0.00953407 0)
(51.0765 -0.0107162 0)
(51.0797 -0.0100962 0)
(51.0605 -0.000785204 0)
(51.0643 0.00221597 0)
(51.0684 0.000650355 0)
(51.0755 0.00152091 0)
(51.0809 0.000919054 0)
(51.085 0.00341593 0)
(51.0884 0.00618848 0)
(51.0911 0.00996379 0)
(51.0923 0.0143504 0)
(51.0919 0.0192749 0)
(51.0895 0.0239284 0)
(51.0854 0.0277157 0)
(51.0798 0.0297891 0)
(51.0737 0.0297931 0)
(51.0679 0.0276407 0)
(51.0633 0.0238317 0)
(51.0602 0.0190119 0)
(51.0586 0.0139169 0)
(51.0583 0.00904166 0)
(51.059 0.00471285 0)
(51.0605 0.00102624 0)
(51.0625 -0.00200432 0)
(51.0646 -0.00445898 0)
(51.0669 -0.00642115 0)
(51.0692 -0.00794838 0)
(51.0716 -0.00915477 0)
(51.074 -0.00981426 0)
(51.0764 -0.0110573 0)
(51.0796 -0.0102108 0)
(51.0606 -0.000852651 0)
(51.0644 0.00238468 0)
(51.0683 6.11738e-05 0)
(51.0754 0.000137398 0)
(51.081 0.000199917 0)
(51.0854 0.00276701 0)
(51.0891 0.00556437 0)
(51.0921 0.00938847 0)
(51.0939 0.0139044 0)
(51.094 0.0191752 0)
(51.0922 0.0244523 0)
(51.0883 0.0291334 0)
(51.0827 0.0322804 0)
(51.0761 0.0333505 0)
(51.0695 0.0320307 0)
(51.0639 0.0286616 0)
(51.0597 0.0238539 0)
(51.0572 0.0184216 0)
(51.0562 0.012997 0)
(51.0565 0.00803993 0)
(51.0578 0.00374172 0)
(51.0597 0.000171959 0)
(51.0618 -0.00273122 0)
(51.0641 -0.00505541 0)
(51.0665 -0.00691588 0)
(51.0689 -0.0083522 0)
(51.0714 -0.00950039 0)
(51.0739 -0.010065 0)
(51.0763 -0.0113818 0)
(51.0794 -0.0102955 0)
(51.0606 -0.000949388 0)
(51.0644 0.00202899 0)
(51.0681 -0.000592034 0)
(51.0754 -0.00139344 0)
(51.081 -0.000350724 0)
(51.0857 0.00216797 0)
(51.0897 0.00493941 0)
(51.0931 0.00878001 0)
(51.0953 0.0133754 0)
(51.0961 0.0189083 0)
(51.0948 0.0247205 0)
(51.0914 0.0302352 0)
(51.0859 0.0344645 0)
(51.0791 0.0367063 0)
(51.0717 0.0364145 0)
(51.065 0.0337167 0)
(51.0596 0.0291247 0)
(51.0561 0.0234862 0)
(51.0543 0.0175596 0)
(51.054 0.0119519 0)
(51.055 0.00697527 0)
(51.0567 0.00277697 0)
(51.0589 -0.000658643 0)
(51.0612 -0.00341361 0)
(51.0636 -0.00561506 0)
(51.0661 -0.00737192 0)
(51.0686 -0.00872886 0)
(51.0712 -0.00981798 0)
(51.0737 -0.0102916 0)
(51.0762 -0.0116864 0)
(51.0792 -0.0103573 0)
(51.0606 -0.00106199 0)
(51.0644 0.00112096 0)
(51.0678 -0.0011773 0)
(51.0753 -0.00267668 0)
(51.0811 -0.000643904 0)
(51.0861 0.00167771 0)
(51.0903 0.00434615 0)
(51.094 0.00815838 0)
(51.0967 0.0127903 0)
(51.098 0.0185064 0)
(51.0974 0.0247587 0)
(51.0946 0.0310274 0)
(51.0894 0.0363122 0)
(51.0825 0.0397899 0)
(51.0745 0.0406956 0)
(51.0667 0.038904 0)
(51.0602 0.0347622 0)
(51.0554 0.0290934 0)
(51.0527 0.0227548 0)
(51.0517 0.016506 0)
(51.0521 0.0108022 0)
(51.0536 0.00589215 0)
(51.0557 0.00182526 0)
(51.0581 -0.00144705 0)
(51.0607 -0.00405688 0)
(51.0632 -0.00613225 0)
(51.0657 -0.00779766 0)
(51.0684 -0.00907543 0)
(51.071 -0.0101124 0)
(51.0735 -0.0104916 0)
(51.076 -0.0119751 0)
(51.0789 -0.0103972 0)
(51.0606 -0.00115115 0)
(51.0643 -0.000192066 0)
(51.0675 -0.0015957 0)
(51.0754 -0.00337243 0)
(51.0813 -0.000657996 0)
(51.0864 0.00132918 0)
(51.0908 0.00380905 0)
(51.0948 0.00753675 0)
(51.098 0.0121643 0)
(51.0999 0.0179933 0)
(51.1 0.0245918 0)
(51.0978 0.0315237 0)
(51.0931 0.0378098 0)
(51.0862 0.0425472 0)
(51.0779 0.044784 0)
(51.0692 0.0441233 0)
(51.0613 0.040687 0)
(51.0553 0.0352048 0)
(51.0513 0.0285895 0)
(51.0494 0.0217463 0)
(51.0492 0.0152918 0)
(51.0504 0.00960001 0)
(51.0524 0.00480553 0)
(51.0548 0.000910218 0)
(51.0575 -0.00219525 0)
(51.0601 -0.00465397 0)
(51.0628 -0.00661508 0)
(51.0655 -0.00819047 0)
(51.0682 -0.00939697 0)
(51.0709 -0.0103805 0)
(51.0733 -0.0106702 0)
(51.0757 -0.0122461 0)
(51.0787 -0.0104213 0)
(51.0605 -0.00117936 0)
(51.0643 -0.0016296 0)
(51.0674 -0.00180345 0)
(51.0754 -0.00330781 0)
(51.0816 -0.000446049 0)
(51.0867 0.00111748 0)
(51.0913 0.00333896 0)
(51.0956 0.00692235 0)
(51.0991 0.0115041 0)
(51.1017 0.0173854 0)
(51.1024 0.0242417 0)
(51.101 0.0317409 0)
(51.0969 0.038954 0)
(51.0903 0.0449393 0)
(51.0817 0.0486004 0)
(51.0723 0.049273 0)
(51.0632 0.0468059 0)
(51.0557 0.0417629 0)
(51.0504 0.0350528 0)
(51.0474 0.0277033 0)
(51.0464 0.0205037 0)
(51.047 0.0139792 0)
(51.0488 0.00836993 0)
(51.0513 0.00374555 0)
(51.054 3.44531e-05 0)
(51.0568 -0.00289425 0)
(51.0597 -0.0052121 0)
(51.0624 -0.00706121 0)
(51.0652 -0.00855593 0)
(51.068 -0.00969029 0)
(51.0707 -0.0106267 0)
(51.073 -0.0108265 0)
(51.0755 -0.0125031 0)
(51.0784 -0.0104301 0)
(51.0604 -0.00113481 0)
(51.0643 -0.00286608 0)
(51.0673 -0.00181605 0)
(51.0755 -0.00254366 0)
(51.0818 -0.000124478 0)
(51.0869 0.00100199 0)
(51.0917 0.00293094 0)
(51.0963 0.00631859 0)
(51.1002 0.0108114 0)
(51.1033 0.0166929 0)
(51.1048 0.0237268 0)
(51.1041 0.0316966 0)
(51.1008 0.0397489 0)
(51.0947 0.0469409 0)
(51.0861 0.0520777 0)
(51.0761 0.0542533 0)
(51.0659 0.0530153 0)
(51.0569 0.0486917 0)
(51.0501 0.0421145 0)
(51.0457 0.0343931 0)
(51.0437 0.0264883 0)
(51.0437 0.0191014 0)
(51.0451 0.0126039 0)
(51.0475 0.00715043 0)
(51.0503 0.00272066 0)
(51.0533 -0.000790351 0)
(51.0563 -0.00354958 0)
(51.0592 -0.00572878 0)
(51.0621 -0.00747681 0)
(51.065 -0.00889066 0)
(51.0678 -0.00995954 0)
(51.0704 -0.0108492 0)
(51.0727 -0.0109657 0)
(51.0753 -0.0127446 0)
(51.0783 -0.0104282 0)
(51.0603 -0.00103666 0)
(51.0643 -0.00363531 0)
(51.0673 -0.00169201 0)
(51.0756 -0.00134619 0)
(51.082 0.000159286 0)
(51.0871 0.000916595 0)
(51.092 0.00256571 0)
(51.0969 0.00572654 0)
(51.1012 0.0100892 0)
(51.1048 0.0159255 0)
(51.1069 0.023065 0)
(51.1071 0.0314094 0)
(51.1046 0.0402029 0)
(51.0992 0.0485362 0)
(51.0909 0.05516 0)
(51.0805 0.0589692 0)
(51.0693 0.0592043 0)
(51.0589 0.0558984 0)
(51.0504 0.049725 0)
(51.0445 0.0418167 0)
(51.0413 0.0332872 0)
(51.0404 0.0250328 0)
(51.0413 0.0175875 0)
(51.0434 0.0112145 0)
(51.0462 0.00595715 0)
(51.0494 0.00174637 0)
(51.0526 -0.00156704 0)
(51.0558 -0.00415814 0)
(51.0589 -0.00621062 0)
(51.0619 -0.00785862 0)
(51.0648 -0.00919879 0)
(51.0675 -0.010203 0)
(51.0702 -0.0110531 0)
(51.0725 -0.0110879 0)
(51.0751 -0.0129735 0)
(51.0781 -0.0104152 0)
(51.0602 -0.000923521 0)
(51.0643 -0.00382299 0)
(51.0674 -0.00151031 0)
(51.0757 -8.97694e-05 0)
(51.0822 0.000271571 0)
(51.0872 0.000788973 0)
(51.0923 0.00221503 0)
(51.0974 0.00514618 0)
(51.102 0.00934448 0)
(51.1061 0.0150956 0)
(51.109 0.0222767 0)
(51.11 0.0309005 0)
(51.1084 0.0403288 0)
(51.1038 0.0497181 0)
(51.096 0.0578031 0)
(51.0855 0.0633322 0)
(51.0736 0.0652568 0)
(51.0617 0.063273 0)
(51.0515 0.0578134 0)
(51.0439 0.0499564 0)
(51.0392 0.0409316 0)
(51.0372 0.0318359 0)
(51.0374 0.0233983 0)
(51.0391 0.0160226 0)
(51.0419 0.00983562 0)
(51.0452 0.00481102 0)
(51.0486 0.000823472 0)
(51.052 -0.00229126 0)
(51.0553 -0.0047265 0)
(51.0586 -0.00665469 0)
(51.0617 -0.0082109 0)
(51.0645 -0.00947803 0)
(51.0672 -0.0104252 0)
(51.0699 -0.0112379 0)
(51.0722 -0.0111976 0)
(51.0749 -0.013188 0)
(51.078 -0.0103953 0)
(51.0602 -0.000831877 0)
(51.0643 -0.00348851 0)
(51.0676 -0.00134811 0)
(51.0758 0.00086595 0)
(51.0822 0.000130489 0)
(51.0873 0.000563164 0)
(51.0925 0.00184921 0)
(51.0978 0.00457657 0)
(51.1028 0.00858961 0)
(51.1073 0.0142211 0)
(51.1108 0.0213864 0)
(51.1127 0.0301966 0)
(51.112 0.0401454 0)
(51.1084 0.050486 0)
(51.1012 0.0599729 0)
(51.091 0.0672624 0)
(51.0785 0.0710544 0)
(51.0655 0.0706902 0)
(51.0535 0.0662848 0)
(51.044 0.0587722 0)
(51.0376 0.049438 0)
(51.0342 0.0395689 0)
(51.0334 0.0301151 0)
(51.0347 0.0216595 0)
(51.0373 0.014443 0)
(51.0406 0.00849584 0)
(51.0442 0.0037177 0)
(51.0479 -4.1547e-05 0)
(51.0515 -0.00296884 0)
(51.055 -0.00525221 0)
(51.0583 -0.00706551 0)
(51.0614 -0.00853104 0)
(51.0643 -0.00973304 0)
(51.0669 -0.0106262 0)
(51.0697 -0.0114081 0)
(51.072 -0.0112941 0)
(51.0749 -0.0133903 0)
(51.078 -0.0103675 0)
(51.0601 -0.000781179 0)
(51.0643 -0.00282653 0)
(51.0677 -0.00125961 0)
(51.0758 0.00129197 0)
(51.0822 -0.000272876 0)
(51.0873 0.000215707 0)
(51.0927 0.00144708 0)
(51.0982 0.00401603 0)
(51.1035 0.00783913 0)
(51.1084 0.013323 0)
(51.1125 0.0204222 0)
(51.1152 0.0293299 0)
(51.1155 0.0396794 0)
(51.1129 0.0508495 0)
(51.1067 0.0616474 0)
(51.0969 0.0706915 0)
(51.0842 0.0764816 0)
(51.0702 0.0780109 0)
(51.0565 0.075019 0)
(51.045 0.0681961 0)
(51.0366 0.0588029 0)
(51.0315 0.0482812 0)
(51.0296 0.0378186 0)
(51.0301 0.0282152 0)
(51.0323 0.0198669 0)
(51.0356 0.0128872 0)
(51.0394 0.00720714 0)
(51.0433 0.00268697 0)
(51.0472 -0.000852935 0)
(51.051 -0.00359777 0)
(51.0547 -0.00574009 0)
(51.058 -0.00744027 0)
(51.0611 -0.00882356 0)
(51.064 -0.00996351 0)
(51.0667 -0.0108106 0)
(51.0695 -0.011563 0)
(51.0719 -0.0113807 0)
(51.0749 -0.0135781 0)
(51.0782 -0.010337 0)
(51.0601 -0.000777521 0)
(51.0643 -0.00211005 0)
(51.0678 -0.00127365 0)
(51.0758 0.00114516 0)
(51.0822 -0.000871665 0)
(51.0874 -0.000237099 0)
(51.0928 0.00100174 0)
(51.0985 0.0034629 0)
(51.1041 0.00710667 0)
(51.1094 0.0124234 0)
(51.1141 0.0194134 0)
(51.1175 0.0283372 0)
(51.1189 0.0389664 0)
(51.1173 0.0508287 0)
(51.1121 0.0628184 0)
(51.103 0.0735655 0)
(51.0905 0.0814306 0)
(51.0757 0.0850892 0)
(51.0606 0.0838706 0)
(51.047 0.0781277 0)
(51.0364 0.0689946 0)
(51.0294 0.0580077 0)
(51.026 0.0465882 0)
(51.0255 0.0357885 0)
(51.0272 0.0262041 0)
(51.0303 0.0180724 0)
(51.0341 0.0113759 0)
(51.0383 0.00598412 0)
(51.0425 0.00171711 0)
(51.0466 -0.00160875 0)
(51.0506 -0.00418302 0)
(51.0544 -0.00618724 0)
(51.0577 -0.00778329 0)
(51.0608 -0.00908787 0)
(51.0637 -0.0101744 0)
(51.0665 -0.0109783 0)
(51.0694 -0.0117057 0)
(51.0719 -0.0114559 0)
(51.0751 -0.0137554 0)
(51.0785 -0.0103 0)
(51.06 -0.000821384 0)
(51.0643 -0.00160232 0)
(51.0679 -0.00138868 0)
(51.0758 0.000543569 0)
(51.0821 -0.00155428 0)
(51.0874 -0.000743438 0)
(51.093 0.000523965 0)
(51.0988 0.00291642 0)
(51.1046 0.0064008 0)
(51.1103 0.0115396 0)
(51.1155 0.0183859 0)
(51.1197 0.027256 0)
(51.122 0.0380493 0)
(51.1216 0.050457 0)
(51.1175 0.0634952 0)
(51.1094 0.0758504 0)
(51.0972 0.085808 0)
(51.0821 0.0917783 0)
(51.0657 0.0926743 0)
(51.0501 0.0884312 0)
(51.0372 0.0799459 0)
(51.0279 0.0687593 0)
(51.0226 0.0564956 0)
(51.0209 0.0444835 0)
(51.0218 0.0335661 0)
(51.0246 0.0241505 0)
(51.0284 0.0163081 0)
(51.0328 0.00993044 0)
(51.0373 0.00482876 0)
(51.0418 0.000810853 0)
(51.0461 -0.0023139 0)
(51.0503 -0.00472194 0)
(51.0541 -0.00659784 0)
(51.0574 -0.00809362 0)
(51.0605 -0.0093292 0)
(51.0635 -0.010366 0)
(51.0664 -0.0111323 0)
(51.0695 -0.0118345 0)
(51.072 -0.0115243 0)
(51.0754 -0.0139193 0)
(51.0791 -0.0102776 0)
(51.06 -0.000920159 0)
(51.0643 -0.00148028 0)
(51.0679 -0.00157853 0)
(51.0758 -0.000275939 0)
(51.082 -0.00219656 0)
(51.0874 -0.00123666 0)
(51.0931 3.94085e-05 0)
(51.0991 0.0023781 0)
(51.1051 0.00572438 0)
(51.1111 0.0106828 0)
(51.1168 0.0173599 0)
(51.1217 0.0261206 0)
(51.1249 0.0369744 0)
(51.1256 0.0497788 0)
(51.1228 0.0637039 0)
(51.1158 0.0775347 0)
(51.1044 0.0895433 0)
(51.0892 0.0979414 0)
(51.0718 0.101253 0)
(51.0544 0.0989393 0)
(51.0391 0.0915475 0)
(51.0273 0.0805118 0)
(51.0199 0.0675953 0)
(51.0164 0.0544058 0)
(51.0163 0.0420766 0)
(51.0186 0.0312402 0)
(51.0223 0.0221011 0)
(51.0268 0.0146045 0)
(51.0316 0.00855793 0)
(51.0364 0.00374568 0)
(51.0411 -3.64124e-05 0)
(51.0457 -0.00296611 0)
(51.05 -0.00521855 0)
(51.0538 -0.00697043 0)
(51.0571 -0.00837654 0)
(51.0603 -0.00954812 0)
(51.0634 -0.0105417 0)
(51.0664 -0.0112714 0)
(51.0696 -0.0119538 0)
(51.0723 -0.0115818 0)
(51.0761 -0.0140745 0)
(51.0727 -0.0102807 0)
(51.06 -0.00109342 0)
(51.0643 -0.00181655 0)
(51.0679 -0.00180274 0)
(51.0757 -0.00105029 0)
(51.0819 -0.00269377 0)
(51.0875 -0.00165407 0)
(51.0932 -0.000420553 0)
(51.0993 0.00185265 0)
(51.1055 0.00507478 0)
(51.1118 0.00985594 0)
(51.1179 0.0163471 0)
(51.1235 0.0249583 0)
(51.1276 0.0357871 0)
(51.1294 0.0488475 0)
(51.1279 0.0634886 0)
(51.1222 0.078631 0)
(51.1118 0.092593 0)
(51.0969 0.103462 0)
(51.0789 0.109427 0)
(51.0598 0.109457 0)
(51.0422 0.103648 0)
(51.0278 0.0931969 0)
(51.0178 0.0799119 0)
(51.0123 0.0656515 0)
(51.0108 0.0518694 0)
(51.0122 0.039479 0)
(51.0157 0.0288764 0)
(51.0203 0.0200989 0)
(51.0254 0.012976 0)
(51.0305 0.00726652 0)
(51.0356 0.00273114 0)
(51.0406 -0.00082272 0)
(51.0453 -0.00356935 0)
(51.0496 -0.0056711 0)
(51.0535 -0.0073103 0)
(51.0569 -0.00863308 0)
(51.0602 -0.0097486 0)
(51.0634 -0.0107006 0)
(51.0665 -0.0113996 0)
(51.0699 -0.0120597 0)
(51.0729 -0.0116358 0)
(51.0783 -0.014211 0)
(51.0141 -0.01002 0)
(51.0599 -0.00133074 0)
(51.0643 -0.00255802 0)
(51.0679 -0.0020132 0)
(51.0757 -0.00157239 0)
(51.0819 -0.00298261 0)
(51.0875 -0.00195482 0)
(51.0933 -0.000827559 0)
(51.0995 0.00134732 0)
(51.1059 0.00444768 0)
(51.1125 0.00905666 0)
(51.119 0.0153528 0)
(51.1251 0.0237881 0)
(51.13 0.0345266 0)
(51.133 0.0477185 0)
(51.1328 0.0629055 0)
(51.1285 0.0791747 0)
(51.1193 0.0949437 0)
(51.1051 0.108254 0)
(51.0868 0.117032 0)
(51.0665 0.119777 0)
(51.0466 0.116054 0)
(51.0294 0.106696 0)
(51.0166 0.0934267 0)
(51.0087 0.0782937 0)
(51.0053 0.0630776 0)
(51.0057 0.049023 0)
(51.0087 0.0367793 0)
(51.0132 0.0265337 0)
(51.0185 0.0181682 0)
(51.0241 0.0114363 0)
(51.0296 0.00605423 0)
(51.035 0.00178709 0)
(51.0402 -0.00155223 0)
(51.045 -0.00412177 0)
(51.0493 -0.0060846 0)
(51.0532 -0.00761859 0)
(51.0568 -0.00886769 0)
(51.0601 -0.00993016 0)
(51.0635 -0.0108466 0)
(51.0668 -0.0115138 0)
(51.0705 -0.012161 0)
(51.0736 -0.0116905 0)
(51.0648 -0.0141358 0)
(50.8726 -0.00919605 0)
(51.0599 -0.00159374 0)
(51.0643 -0.00345333 0)
(51.0679 -0.00216984 0)
(51.0757 -0.00172093 0)
(51.0819 -0.00304376 0)
(51.0875 -0.00212878 0)
(51.0934 -0.00116425 0)
(51.0997 0.000870768 0)
(51.1062 0.00384016 0)
(51.113 0.00828037 0)
(51.1199 0.0143774 0)
(51.1266 0.0226211 0)
(51.1323 0.0332238 0)
(51.1363 0.0464448 0)
(51.1375 0.0620178 0)
(51.1346 0.0792191 0)
(51.1268 0.0966113 0)
(51.1136 0.112263 0)
(51.0955 0.123929 0)
(51.0743 0.129688 0)
(51.0524 0.128544 0)
(51.0324 0.12084 0)
(51.0165 0.10807 0)
(51.0058 0.0923683 0)
(51.0002 0.0758205 0)
(50.9991 0.0600362 0)
(51.0012 0.0459816 0)
(51.0056 0.034057 0)
(51.011 0.0242501 0)
(51.0169 0.0163308 0)
(51.0229 0.0099866 0)
(51.0288 0.00492365 0)
(51.0344 0.000909168 0)
(51.0398 -0.00222309 0)
(51.0447 -0.00462789 0)
(51.049 -0.00646026 0)
(51.053 -0.00790046 0)
(51.0567 -0.00908057 0)
(51.0603 -0.0100964 0)
(51.0638 -0.0109768 0)
(51.0674 -0.0116216 0)
(51.0715 -0.0122487 0)
(51.0687 -0.011768 0)
(50.9677 -0.0132432 0)
(50.6806 -0.00818451 0)
(51.0598 -0.00177657 0)
(51.0642 -0.00423122 0)
(51.068 -0.00223897 0)
(51.0757 -0.00150057 0)
(51.0819 -0.00289505 0)
(51.0876 -0.00219144 0)
(51.0935 -0.00142753 0)
(51.0999 0.000431452 0)
(51.1065 0.00325339 0)
(51.1135 0.00752496 0)
(51.1207 0.0134212 0)
(51.1279 0.0214634 0)
(51.1344 0.0318998 0)
(51.1394 0.0450711 0)
(51.1418 0.0608884 0)
(51.1405 0.0788287 0)
(51.1343 0.0976361 0)
(51.1223 0.115473 0)
(51.1049 0.130012 0)
(51.0832 0.138998 0)
(51.0596 0.140876 0)
(51.0369 0.135411 0)
(51.0178 0.123711 0)
(51.0038 0.107862 0)
(50.9956 0.0901876 0)
(50.9925 0.0726782 0)
(50.9935 0.0566717 0)
(50.9973 0.0428504 0)
(51.0028 0.031368 0)
(51.0091 0.0220583 0)
(51.0155 0.0145932 0)
(51.0219 0.00863126 0)
(51.0281 0.00387034 0)
(51.0339 9.90125e-05 0)
(51.0394 -0.00283944 0)
(51.0444 -0.00508873 0)
(51.0489 -0.00680377 0)
(51.053 -0.00815663 0)
(51.0569 -0.0092752 0)
(51.0606 -0.0102453 0)
(51.0643 -0.0110992 0)
(51.0682 -0.0117151 0)
(51.0722 -0.0123476 0)
(51.0069 -0.0114279 0)
(50.7951 -0.0117614 0)
(50.4611 -0.00719828 0)
(51.0598 -0.00172099 0)
(51.0642 -0.00449858 0)
(51.068 -0.00221252 0)
(51.0757 -0.00105702 0)
(51.0819 -0.00258284 0)
(51.0876 -0.00217563 0)
(51.0936 -0.00162536 0)
(51.1 3.72322e-05 0)
(51.1067 0.00269346 0)
(51.114 0.00679223 0)
(51.1215 0.0124863 0)
(51.1291 0.020319 0)
(51.1362 0.0305683 0)
(51.1422 0.0436326 0)
(51.1459 0.0595747 0)
(51.1461 0.078072 0)
(51.1415 0.098076 0)
(51.1311 0.117898 0)
(51.1147 0.135216 0)
(51.093 0.14754 0)
(51.0681 0.15281 0)
(51.043 0.150154 0)
(51.0206 0.140161 0)
(51.0031 0.1247 0)
(50.9917 0.106226 0)
(50.9861 0.0870889 0)
(50.9855 0.0690423 0)
(50.9885 0.0531194 0)
(50.9939 0.0397081 0)
(51.0004 0.0287598 0)
(51.0073 0.0199731 0)
(51.0143 0.0129632 0)
(51.021 0.0073664 0)
(51.0275 0.00289583 0)
(51.0335 -0.000647254 0)
(51.0391 -0.00340194 0)
(51.0441 -0.00551033 0)
(51.0488 -0.00711657 0)
(51.0531 -0.00839079 0)
(51.0572 -0.00945013 0)
(51.0611 -0.0103842 0)
(51.0651 -0.0112053 0)
(51.0694 -0.0118206 0)
(51.0433 -0.0122104 0)
(50.8535 -0.0103016 0)
(50.5824 -0.0102598 0)
(50.2293 -0.00628568 0)
(51.0597 -0.00130136 0)
(51.0643 -0.00390716 0)
(51.0681 -0.00209552 0)
(51.0756 -0.00057665 0)
(51.0818 -0.00219835 0)
(51.0876 -0.0021211 0)
(51.0936 -0.00177263 0)
(51.1001 -0.000306091 0)
(51.1069 0.00217194 0)
(51.1144 0.00608941 0)
(51.1221 0.0115786 0)
(51.1302 0.0191934 0)
(51.1379 0.0292383 0)
(51.1448 0.042154 0)
(51.1497 0.0581241 0)
(51.1514 0.0770148 0)
(51.1486 0.0979989 0)
(51.1399 0.119579 0)
(51.1247 0.139515 0)
(51.1035 0.15519 0)
(51.0779 0.164121 0)
(51.0507 0.164799 0)
(51.0251 0.157178 0)
(51.0039 0.14274 0)
(50.9888 0.123925 0)
(50.9803 0.103375 0)
(50.9775 0.0832772 0)
(50.9793 0.0650826 0)
(50.9842 0.0494867 0)
(50.9909 0.036622 0)
(50.9983 0.0262593 0)
(51.0058 0.018008 0)
(51.0132 0.0114386 0)
(51.0203 0.00619366 0)
(51.027 0.00199618 0)
(51.0331 -0.00132988 0)
(51.0388 -0.00391681 0)
(51.0441 -0.00589487 0)
(51.0489 -0.00740269 0)
(51.0534 -0.00860191 0)
(51.0577 -0.00961213 0)
(51.0619 -0.0105048 0)
(51.0663 -0.0113103 0)
(51.0605 -0.0118621 0)
(50.9196 -0.0112351 0)
(50.6482 -0.00901192 0)
(50.3498 -0.00885469 0)
(49.9948 -0.00547732 0)
(51.0597 -0.000447016 0)
(51.0643 -0.00237972 0)
(51.0682 -0.00191392 0)
(51.0757 -0.000312497 0)
(51.0818 -0.00183848 0)
(51.0876 -0.00207427 0)
(51.0937 -0.00188511 0)
(51.1002 -0.000595036 0)
(51.1071 0.00170126 0)
(51.1147 0.00542837 0)
(51.1227 0.010707 0)
(51.1311 0.0180941 0)
(51.1394 0.0279178 0)
(51.1471 0.0406529 0)
(51.1532 0.0565744 0)
(51.1564 0.0757165 0)
(51.1553 0.0974751 0)
(51.1484 0.120574 0)
(51.1349 0.142918 0)
(51.1146 0.161864 0)
(51.0888 0.174616 0)
(51.0599 0.179069 0)
(51.0313 0.17448 0)
(51.0064 0.161777 0)
(50.9873 0.143206 0)
(50.9752 0.121592 0)
(50.9698 0.0995369 0)
(50.9699 0.078959 0)
(50.9739 0.0609403 0)
(50.9804 0.0458659 0)
(50.9882 0.0336349 0)
(50.9964 0.0238883 0)
(51.0045 0.0161641 0)
(51.0123 0.0100218 0)
(51.0197 0.00510885 0)
(51.0265 0.00117154 0)
(51.0328 -0.00195494 0)
(51.0387 -0.00438686 0)
(51.0442 -0.00624683 0)
(51.0492 -0.00766165 0)
(51.0539 -0.0087964 0)
(51.0585 -0.00975405 0)
(51.063 -0.0106223 0)
(51.0657 -0.0114141 0)
(50.9755 -0.0112452 0)
(50.7253 -0.00978679 0)
(50.4162 -0.00779591 0)
(50.1107 -0.00760978 0)
(49.7641 -0.00477652 0)
(51.0597 0.000702936 0)
(51.0643 4.04617e-05 0)
(51.0682 -0.00172264 0)
(51.0757 -0.000479005 0)
(51.0818 -0.00163716 0)
(51.0876 -0.00207354 0)
(51.0937 -0.00198298 0)
(51.1003 -0.000827965 0)
(51.1073 0.0012926 0)
(51.115 0.00482173 0)
(51.1233 0.00988327 0)
(51.132 0.0170311 0)
(51.1408 0.0266159 0)
(51.1493 0.0391425 0)
(51.1564 0.0549537 0)
(51.161 0.0742276 0)
(51.1616 0.0965731 0)
(51.1568 0.120952 0)
(51.1451 0.145461 0)
(51.1261 0.167522 0)
(51.1006 0.184144 0)
(51.0706 0.192709 0)
(51.0394 0.191761 0)
(51.0107 0.181544 0)
(50.9874 0.163918 0)
(50.9712 0.141732 0)
(50.9625 0.117942 0)
(50.9603 0.0949557 0)
(50.9631 0.0743148 0)
(50.9692 0.0567392 0)
(50.9771 0.0423213 0)
(50.9859 0.0307814 0)
(50.9948 0.021654 0)
(51.0034 0.0144456 0)
(51.0116 0.00870852 0)
(51.0192 0.00411243 0)
(51.0262 0.000415991 0)
(51.0327 -0.00252592 0)
(51.0388 -0.00481738 0)
(51.0445 -0.00656639 0)
(51.0497 -0.00789952 0)
(51.0547 -0.00896816 0)
(51.0596 -0.00989166 0)
(51.0643 -0.0107417 0)
(51.0195 -0.0111428 0)
(50.7975 -0.00979298 0)
(50.495 -0.00839763 0)
(50.1742 -0.00671526 0)
(49.8736 -0.00653988 0)
(49.5412 -0.00417566 0)
(51.0597 0.00196674 0)
(51.0642 0.00289275 0)
(51.0682 -0.00156598 0)
(51.0757 -0.00114851 0)
(51.0818 -0.00172567 0)
(51.0876 -0.00216262 0)
(51.0937 -0.00208387 0)
(51.1004 -0.00101548 0)
(51.1075 0.00095311 0)
(51.1153 0.00428013 0)