/*--------------------------------*- C++ -*----------------------------------*\
  =========                 |
  \\      /  F ield         | OpenFOAM: The Open Source CFD Toolbox
   \\    /   O peration     | Website:  https://openfoam.org
    \\  /    A nd           | Version:  dev
     \\/     M anipulation  |
\*---------------------------------------------------------------------------*/
FoamFile
{
    version     2.0;
    format      ascii;
    class       volScalarField;
    location    "475";
    object      yPlus;
}
// * * * * * * * * * * * * * * * * * * * * * * * * * * * * * * * * * * * * * //

dimensions      [0 0 0 0 0 0 0];

internalField   uniform 0;

boundaryField
{
    inlet-l
    {
        type            calculated;
        value           uniform 0;
    }
    airfoil-l1
    {
        type            calculated;
        value           nonuniform List<scalar> 
71
(
191.521
214.782
249.874
283.688
310.266
327.673
337.989
343.168
344.703
343.725
340.927
337.066
331.707
325.291
318.214
310.745
303.053
295.246
287.379
279.531
271.767
264.105
256.576
249.208
242.03
235.064
228.334
221.853
215.667
209.805
204.303
199.204
194.553
190.389
186.771
183.733
181.297
179.454
178.162
177.374
176.973
176.879
177.055
177.355
177.769
178.14
178.51
178.76
178.886
178.843
178.647
178.209
177.504
176.601
175.456
174.042
172.44
170.596
168.585
166.375
164.052
161.585
159.025
156.395
153.701
150.993
148.274
145.591
142.926
140.419
137.789
)
;
    }
    empty-1
    {
        type            empty;
    }
    empty-2
    {
        type            empty;
    }
    wall-l1
    {
        type            calculated;
        value           nonuniform List<scalar> 
104
(
17.649
16.089
13.2552
8.82174
8.52861
10.8731
11.9977
12.7391
12.9528
13.0272
13.1639
13.0722
12.8838
12.7694
12.8242
12.8081
12.9112
12.9329
12.9806
13.0883
13.127
13.2211
13.2295
13.1783
13.1155
12.9973
12.9259
12.8901
12.8839
12.9412
13.0149
13.0711
13.0568
12.9601
12.8578
12.7953
12.7764
12.7851
12.7952
12.7893
12.7761
12.8309
12.9944
13.1365
13.0976
12.9107
12.8378
13.0578
13.3871
13.5293
13.3896
13.0987
12.8794
12.8434
12.9179
12.97
12.9385
12.8723
12.8801
13.0257
13.2384
13.3558
13.2693
13.0384
12.8808
12.9523
13.1524
13.2691
13.2245
13.1038
13.0206
13.0141
13.089
13.2388
13.3762
13.3515
13.1248
12.9252
13.1172
13.7318
14.4
14.7892
14.7889
14.462
13.9638
13.4817
13.1664
13.076
13.1404
13.2129
13.1828
13.0967
13.1916
13.6791
14.412
14.9905
15.0992
14.6655
13.9145
13.3397
13.3228
13.6337
13.8269
13.6674
)
;
    }
    airfoil-l2
    {
        type            calculated;
        value           nonuniform List<scalar> 
104
(
137.436
139.806
141.654
142.988
143.955
144.64
145.102
145.384
145.534
145.58
145.507
145.333
145.092
144.806
144.484
144.132
143.751
143.368
142.963
142.544
142.122
141.695
141.262
140.819
140.372
139.926
139.475
139.021
138.565
138.104
137.636
137.178
136.725
136.262
135.795
135.332
134.87
134.41
133.95
133.486
133.02
132.554
132.087
131.622
131.161
130.697
130.231
129.763
129.298
128.831
128.362
127.891
127.42
126.951
126.479
126.005
125.524
125.046
124.566
124.083
123.593
123.103
122.615
122.114
121.611
121.104
120.59
120.07
119.546
119.023
118.489
117.941
117.388
116.83
116.251
115.675
115.086
114.478
113.859
113.225
112.574
111.899
111.215
110.504
109.766
109.004
108.216
107.39
106.517
105.614
104.664
103.657
102.587
101.446
100.221
98.8959
97.4509
95.863
94.0974
92.0802
89.7668
86.8783
83.6066
77.3126
)
;
    }
    empty-3
    {
        type            empty;
    }
    empty-4
    {
        type            empty;
    }
    wall-l2
    {
        type            calculated;
        value           nonuniform List<scalar> 
51
(
13.4427
13.1875
13.1792
13.2939
13.425
13.4812
13.4905
13.4927
13.4962
13.5053
13.52
13.5449
13.5864
13.6478
13.7336
13.8357
13.9418
14.0321
14.0877
14.1003
14.0696
14.0046
13.918
13.8313
13.7609
13.7207
13.728
13.8
13.9413
14.122
14.2833
14.3676
14.3487
14.2338
14.048
13.8178
13.5751
13.3826
13.3398
13.5337
13.9549
14.4865
14.975
15.2943
15.357
15.1082
14.5129
13.5593
12.279
10.7081
8.82239
)
;
    }
    outlet-l
    {
        type            calculated;
        value           uniform 0;
    }
    empty-5
    {
        type            empty;
    }
    empty-6
    {
        type            empty;
    }
    outlet-h
    {
        type            calculated;
        value           uniform 0;
    }
    wall-h2
    {
        type            calculated;
        value           nonuniform List<scalar> 
51
(
12.6926
12.6904
12.7427
12.7433
12.7967
12.7744
12.7738
12.7985
12.7911
12.7956
12.7924
12.793
12.8038
12.8147
12.8317
12.8499
12.8753
12.9024
12.9356
12.9702
13.0033
13.0316
13.0516
13.0651
13.0782
13.0997
13.1403
13.2067
13.3019
13.4184
13.5417
13.6525
13.7387
13.7994
13.8459
13.8938
13.9553
14.0306
14.1067
14.1606
14.1692
14.1176
14.0059
13.8482
13.6664
13.4826
13.31
13.1573
13.0084
12.8876
12.6742
)
;
    }
    empty-7
    {
        type            empty;
    }
    empty-8
    {
        type            empty;
    }
    airfoil-h2
    {
        type            calculated;
        value           nonuniform List<scalar> 
104
(
136.09
138.425
140.258
141.591
142.566
143.274
143.763
144.08
144.266
144.357
144.349
144.249
144.08
143.857
143.59
143.296
142.973
142.643
142.289
141.928
141.558
141.176
140.787
140.394
139.994
139.58
139.171
138.756
138.332
137.912
137.484
137.05
136.613
136.186
135.753
135.314
134.868
134.419
133.976
133.526
133.081
132.629
132.175
131.721
131.268
130.814
130.355
129.893
129.431
128.963
128.504
128.03
127.56
127.093
126.619
126.144
125.67
125.19
124.702
124.22
123.726
123.24
122.74
122.239
121.735
121.229
120.717
120.195
119.67
119.141
118.596
118.054
117.5
116.938
116.367
115.783
115.194
114.585
113.966
113.33
112.674
112.007
111.32
110.605
109.87
109.112
108.32
107.495
106.63
105.723
104.767
103.755
102.677
101.533
100.303
98.9757
97.5258
95.9256
94.139
92.1042
89.7767
86.875
83.5951
77.2596
)
;
    }
    wall-h1
    {
        type            calculated;
        value           nonuniform List<scalar> 
104
(
23.6731
18.3369
8.12612
7.68619
19.6842
18.0876
13.6415
9.97554
10.4795
12.87
12.332
11.8495
11.4777
11.6204
11.72
11.9177
11.8661
11.8161
11.9318
11.9509
12.0284
12.0834
12.1105
12.1237
12.1432
12.1542
12.164
12.1983
12.2108
12.2359
12.2605
12.2748
12.2978
12.3108
12.3267
12.3453
12.3589
12.3731
12.3841
12.3964
12.4153
12.4392
12.4695
12.4897
12.49
12.472
12.4527
12.4462
12.4499
12.4532
12.4526
12.4548
12.4657
12.483
12.5008
12.5149
12.5235
12.5272
12.526
12.5208
12.5126
12.5057
12.5027
12.5051
12.5141
12.5324
12.5621
12.5962
12.6206
12.626
12.6148
12.5974
12.584
12.5786
12.5792
12.5821
12.5835
12.5825
12.5822
12.5861
12.5935
12.5997
12.6
12.5955
12.594
12.6011
12.6152
12.631
12.6425
12.6481
12.6477
12.6453
12.6424
12.6414
12.6418
12.6443
12.6478
12.6528
12.6594
12.6666
12.6735
12.679
12.6896
12.7019
)
;
    }
    empty-9
    {
        type            empty;
    }
    empty-10
    {
        type            empty;
    }
    inlet-h
    {
        type            calculated;
        value           uniform 0;
    }
    airfoil-h1
    {
        type            calculated;
        value           nonuniform List<scalar> 
71
(
189.668
210.102
244.62
279.179
307.527
326.915
338.98
345.55
348.124
347.871
345.565
341.924
336.849
330.516
323.374
315.732
307.787
299.668
291.435
283.197
275.008
266.896
258.91
251.08
243.414
235.962
228.744
221.797
215.139
208.807
202.851
197.319
192.256
187.708
183.744
180.391
177.684
175.634
174.189
173.286
172.837
172.731
172.903
173.257
173.76
174.236
174.689
175.049
175.302
175.42
175.332
175.072
174.552
173.8
172.794
171.52
170.039
168.335
166.409
164.317
162.065
159.684
157.199
154.639
152.018
149.353
146.707
144.068
141.469
139.029
136.454
)
;
    }
    empty-11
    {
        type            empty;
    }
    empty-12
    {
        type            empty;
    }
}


// ************************************************************************* //
