/*--------------------------------*- C++ -*----------------------------------*\
  =========                 |
  \\      /  F ield         | OpenFOAM: The Open Source CFD Toolbox
   \\    /   O peration     | Website:  https://openfoam.org
    \\  /    A nd           | Version:  dev
     \\/     M anipulation  |
\*---------------------------------------------------------------------------*/
FoamFile
{
    version     2.0;
    format      ascii;
    class       volScalarField;
    location    "125";
    object      nut;
}
// * * * * * * * * * * * * * * * * * * * * * * * * * * * * * * * * * * * * * //

dimensions      [0 2 -1 0 0 0 0];

internalField   nonuniform List<scalar> 
29380
(
9.13074e-06
9.12747e-06
9.12336e-06
9.12594e-06
9.12116e-06
9.11249e-06
9.12411e-06
9.11994e-06
9.11197e-06
9.11514e-06
9.12266e-06
9.11849e-06
9.11156e-06
9.11419e-06
9.10647e-06
9.1215e-06
9.11727e-06
9.11087e-06
9.11357e-06
9.10666e-06
9.10627e-06
9.12054e-06
9.1163e-06
9.11023e-06
9.11275e-06
9.10655e-06
9.10642e-06
9.10472e-06
9.11962e-06
9.11556e-06
9.10977e-06
9.11204e-06
9.10629e-06
9.10634e-06
9.10461e-06
9.1066e-06
9.11864e-06
9.11491e-06
9.1095e-06
9.11148e-06
9.1061e-06
9.10618e-06
9.10446e-06
9.1062e-06
9.10928e-06
9.11762e-06
9.11424e-06
9.10936e-06
9.11107e-06
9.10607e-06
9.10607e-06
9.10418e-06
9.10584e-06
9.10835e-06
9.11236e-06
9.11662e-06
9.11349e-06
9.10925e-06
9.11071e-06
9.10617e-06
9.10607e-06
9.10399e-06
9.1053e-06
9.10788e-06
9.11093e-06
9.1152e-06
9.11571e-06
9.1127e-06
9.10912e-06
9.11035e-06
9.1063e-06
9.10616e-06
9.10395e-06
9.10488e-06
9.10726e-06
9.11018e-06
9.11327e-06
9.11869e-06
9.11491e-06
9.11196e-06
9.10894e-06
9.10995e-06
9.10638e-06
9.10626e-06
9.10406e-06
9.10466e-06
9.10674e-06
9.10925e-06
9.11245e-06
9.116e-06
9.12204e-06
9.11423e-06
9.11133e-06
9.10871e-06
9.10956e-06
9.10635e-06
9.1063e-06
9.10421e-06
9.10463e-06
9.10634e-06
9.10851e-06
9.11143e-06
9.11492e-06
9.11861e-06
9.12593e-06
9.11362e-06
9.11082e-06
9.10846e-06
9.10922e-06
9.10624e-06
9.10628e-06
9.10433e-06
9.10467e-06
9.10606e-06
9.10794e-06
9.11051e-06
9.11377e-06
9.11724e-06
9.12159e-06
9.12985e-06
9.11308e-06
9.11039e-06
9.10826e-06
9.10895e-06
9.10608e-06
9.10619e-06
9.10441e-06
9.10466e-06
9.10584e-06
9.10752e-06
9.10965e-06
9.11281e-06
9.11593e-06
9.11994e-06
9.1244e-06
9.13434e-06
9.11263e-06
9.11e-06
9.10812e-06
9.10875e-06
9.10596e-06
9.1061e-06
9.10445e-06
9.10457e-06
9.10564e-06
9.10716e-06
9.10891e-06
9.11184e-06
9.11492e-06
9.11851e-06
9.1224e-06
9.12749e-06
9.13951e-06
9.11232e-06
9.10964e-06
9.10806e-06
9.1086e-06
9.10594e-06
9.10602e-06
9.10451e-06
9.10442e-06
9.10541e-06
9.1068e-06
9.10832e-06
9.11082e-06
9.11385e-06
9.11745e-06
9.121e-06
9.12504e-06
9.13084e-06
9.14568e-06
9.11215e-06
9.10931e-06
9.10801e-06
9.10846e-06
9.10603e-06
9.10598e-06
9.10459e-06
9.1043e-06
9.10516e-06
9.10642e-06
9.10786e-06
9.10986e-06
9.11266e-06
9.11622e-06
9.12008e-06
9.12377e-06
9.12763e-06
9.13479e-06
9.15286e-06
9.11208e-06
9.10904e-06
9.10794e-06
9.10831e-06
9.10618e-06
9.10601e-06
9.10472e-06
9.10425e-06
9.10492e-06
9.10602e-06
9.10745e-06
9.10908e-06
9.11144e-06
9.11474e-06
9.11879e-06
9.12317e-06
9.1265e-06
9.13042e-06
9.1393e-06
9.16109e-06
9.11198e-06
9.10882e-06
9.10782e-06
9.10813e-06
9.10632e-06
9.10607e-06
9.10491e-06
9.1043e-06
9.10474e-06
9.10565e-06
9.10702e-06
9.10849e-06
9.11039e-06
9.11319e-06
9.11694e-06
9.12193e-06
9.12644e-06
9.12936e-06
9.13341e-06
9.14427e-06
9.17042e-06
9.11179e-06
9.10863e-06
9.10767e-06
9.10794e-06
9.10636e-06
9.10615e-06
9.10511e-06
9.10444e-06
9.10466e-06
9.10535e-06
9.10654e-06
9.10801e-06
9.10958e-06
9.11187e-06
9.11491e-06
9.11969e-06
9.12548e-06
9.13003e-06
9.13241e-06
9.1365e-06
9.14981e-06
9.1806e-06
9.11153e-06
9.10844e-06
9.10753e-06
9.10776e-06
9.10634e-06
9.1062e-06
9.10526e-06
9.10464e-06
9.10468e-06
9.10517e-06
9.10609e-06
9.10753e-06
9.10896e-06
9.11091e-06
9.11323e-06
9.117e-06
9.12294e-06
9.12958e-06
9.13398e-06
9.13566e-06
9.13979e-06
9.15586e-06
9.19171e-06
9.11126e-06
9.10824e-06
9.10744e-06
9.10761e-06
9.10629e-06
9.10624e-06
9.10533e-06
9.10485e-06
9.10475e-06
9.1051e-06
9.10576e-06
9.10702e-06
9.10839e-06
9.11019e-06
9.11215e-06
9.11477e-06
9.11954e-06
9.12685e-06
9.13423e-06
9.13845e-06
9.13917e-06
9.14329e-06
9.16238e-06
9.2035e-06
9.11105e-06
9.10804e-06
9.10743e-06
9.10749e-06
9.10628e-06
9.10626e-06
9.10536e-06
9.10503e-06
9.10483e-06
9.1051e-06
9.10558e-06
9.10656e-06
9.10782e-06
9.10949e-06
9.11143e-06
9.11344e-06
9.11659e-06
9.12267e-06
9.13138e-06
9.1396e-06
9.14343e-06
9.14285e-06
9.14693e-06
9.16894e-06
9.21574e-06
9.11087e-06
9.10786e-06
9.10749e-06
9.1074e-06
9.10634e-06
9.10629e-06
9.10541e-06
9.10514e-06
9.10488e-06
9.10512e-06
9.10553e-06
9.10623e-06
9.1073e-06
9.10876e-06
9.11072e-06
9.11274e-06
9.11487e-06
9.11886e-06
9.1264e-06
9.13661e-06
9.14568e-06
9.14871e-06
9.14671e-06
9.15019e-06
9.17548e-06
9.22773e-06
9.11068e-06
9.1077e-06
9.10762e-06
9.10736e-06
9.10642e-06
9.10633e-06
9.10551e-06
9.10523e-06
9.10491e-06
9.10512e-06
9.10552e-06
9.10606e-06
9.1069e-06
9.10809e-06
9.10984e-06
9.1121e-06
9.11414e-06
9.11659e-06
9.12164e-06
9.13066e-06
9.14253e-06
9.1522e-06
9.15443e-06
9.15033e-06
9.15313e-06
9.1817e-06
9.23898e-06
9.1105e-06
9.10754e-06
9.10775e-06
9.10737e-06
9.10649e-06
9.10637e-06
9.10566e-06
9.10533e-06
9.10497e-06
9.1051e-06
9.10548e-06
9.10598e-06
9.10666e-06
9.1076e-06
9.10894e-06
9.11117e-06
9.1136e-06
9.11572e-06
9.11875e-06
9.12484e-06
9.13544e-06
9.14894e-06
9.15937e-06
9.16027e-06
9.15373e-06
9.15561e-06
9.18689e-06
9.24966e-06
9.11041e-06
9.10741e-06
9.10785e-06
9.10743e-06
9.10653e-06
9.10642e-06
9.10583e-06
9.10545e-06
9.10508e-06
9.1051e-06
9.10542e-06
9.10592e-06
9.10651e-06
9.10733e-06
9.10826e-06
9.11006e-06
9.11269e-06
9.11526e-06
9.11765e-06
9.12132e-06
9.1284e-06
9.14066e-06
9.15604e-06
9.16696e-06
9.16617e-06
9.15662e-06
9.15721e-06
9.19148e-06
9.2589e-06
9.1105e-06
9.10732e-06
9.10789e-06
9.10749e-06
9.10655e-06
9.10647e-06
9.10598e-06
9.10558e-06
9.10524e-06
9.10513e-06
9.10536e-06
9.10582e-06
9.10638e-06
9.10716e-06
9.10791e-06
9.10914e-06
9.11143e-06
9.1144e-06
9.11718e-06
9.12004e-06
9.12423e-06
9.13233e-06
9.14645e-06
9.16361e-06
9.1748e-06
9.17161e-06
9.15888e-06
9.15821e-06
9.19458e-06
9.26649e-06
9.11078e-06
9.1073e-06
9.10788e-06
9.10753e-06
9.10656e-06
9.10653e-06
9.10608e-06
9.10573e-06
9.10542e-06
9.10523e-06
9.10535e-06
9.10572e-06
9.10623e-06
9.10699e-06
9.10776e-06
9.10862e-06
9.11026e-06
9.11307e-06
9.11632e-06
9.11955e-06
9.12287e-06
9.12747e-06
9.13666e-06
9.15258e-06
9.17151e-06
9.18226e-06
9.17657e-06
9.16046e-06
9.15807e-06
9.19604e-06
9.27331e-06
9.11112e-06
9.10736e-06
9.10788e-06
9.10753e-06
9.1066e-06
9.10659e-06
9.10616e-06
9.10589e-06
9.10558e-06
9.10536e-06
9.1054e-06
9.10565e-06
9.10607e-06
9.10676e-06
9.10761e-06
9.10841e-06
9.10951e-06
9.11172e-06
9.11491e-06
9.11859e-06
9.12245e-06
9.12606e-06
9.13103e-06
9.14117e-06
9.15903e-06
9.17909e-06
9.18923e-06
9.18081e-06
9.16096e-06
9.15712e-06
9.19682e-06
9.28109e-06
9.11138e-06
9.10745e-06
9.1079e-06
9.10751e-06
9.10669e-06
9.10664e-06
9.10623e-06
9.10605e-06
9.10571e-06
9.10552e-06
9.10549e-06
9.10564e-06
9.10597e-06
9.10653e-06
9.10736e-06
9.10828e-06
9.10917e-06
9.11076e-06
9.11342e-06
9.117e-06
9.12139e-06
9.12578e-06
9.1296e-06
9.13471e-06
9.14598e-06
9.16523e-06
9.1861e-06
9.19547e-06
9.18379e-06
9.16083e-06
9.15616e-06
9.19848e-06
9.29512e-06
9.11145e-06
9.10752e-06
9.10794e-06
9.1075e-06
9.10682e-06
9.10668e-06
9.10633e-06
9.1062e-06
9.10585e-06
9.10569e-06
9.1056e-06
9.10569e-06
9.10593e-06
9.10635e-06
9.10706e-06
9.10804e-06
9.10899e-06
9.11026e-06
9.11232e-06
9.11533e-06
9.1195e-06
9.12466e-06
9.12955e-06
9.13328e-06
9.13863e-06
9.15064e-06
9.17085e-06
9.19243e-06
9.20024e-06
9.18566e-06
9.16008e-06
9.15657e-06
9.20485e-06
9.32206e-06
9.11136e-06
9.10753e-06
9.10797e-06
9.10752e-06
9.10697e-06
9.10673e-06
9.10645e-06
9.10632e-06
9.10601e-06
9.10586e-06
9.10574e-06
9.10578e-06
9.10595e-06
9.10627e-06
9.10679e-06
9.10768e-06
9.10874e-06
9.10998e-06
9.11165e-06
9.1141e-06
9.11752e-06
9.12242e-06
9.12843e-06
9.13355e-06
9.13714e-06
9.1425e-06
9.15481e-06
9.17587e-06
9.19727e-06
9.20312e-06
9.18576e-06
9.15922e-06
9.16133e-06
9.22108e-06
9.37187e-06
9.11119e-06
9.10747e-06
9.10799e-06
9.10755e-06
9.10712e-06
9.1068e-06
9.10657e-06
9.10644e-06
9.10619e-06
9.10602e-06
9.1059e-06
9.10588e-06
9.10601e-06
9.10626e-06
9.10663e-06
9.10732e-06
9.10836e-06
9.10965e-06
9.1112e-06
9.11334e-06
9.11611e-06
9.12003e-06
9.12586e-06
9.13253e-06
9.13764e-06
9.14097e-06
9.14602e-06
9.15844e-06
9.17963e-06
9.19979e-06
9.20326e-06
9.18361e-06
9.16035e-06
9.17603e-06
9.25601e-06
9.45981e-06
9.11104e-06
9.10739e-06
9.10804e-06
9.10757e-06
9.10724e-06
9.10692e-06
9.10668e-06
9.10654e-06
9.10637e-06
9.10617e-06
9.10609e-06
9.10601e-06
9.10609e-06
9.10629e-06
9.10658e-06
9.10707e-06
9.10794e-06
9.10917e-06
9.11071e-06
9.11274e-06
9.11526e-06
9.11832e-06
9.12299e-06
9.12969e-06
9.13671e-06
9.14168e-06
9.14454e-06
9.14904e-06
9.16114e-06
9.18125e-06
9.19933e-06
9.19964e-06
9.18071e-06
9.16949e-06
9.20946e-06
9.32381e-06
9.60618e-06
9.11103e-06
9.10733e-06
9.10817e-06
9.1076e-06
9.10733e-06
9.10708e-06
9.10677e-06
9.10666e-06
9.10655e-06
9.10633e-06
9.10628e-06
9.10617e-06
9.1062e-06
9.10634e-06
9.10658e-06
9.10694e-06
9.10761e-06
9.10864e-06
9.11013e-06
9.11208e-06
9.11458e-06
9.11735e-06
9.12091e-06
9.12634e-06
9.1337e-06
9.14077e-06
9.14544e-06
9.14763e-06
9.15132e-06
9.16231e-06
9.18034e-06
9.19495e-06
9.19338e-06
9.18283e-06
9.19448e-06
9.27366e-06
9.44207e-06
9.82975e-06
9.1112e-06
9.10732e-06
9.10839e-06
9.10767e-06
9.10741e-06
9.10723e-06
9.10685e-06
9.10679e-06
9.10669e-06
9.10652e-06
9.10646e-06
9.10636e-06
9.10633e-06
9.10642e-06
9.10662e-06
9.10692e-06
9.10741e-06
9.1082e-06
9.10954e-06
9.11133e-06
9.11377e-06
9.11664e-06
9.11976e-06
9.12382e-06
9.13003e-06
9.13756e-06
9.14451e-06
9.14874e-06
9.14999e-06
9.15268e-06
9.16161e-06
9.17636e-06
9.18759e-06
9.18901e-06
9.19613e-06
9.24452e-06
9.38191e-06
9.62486e-06
1.0154e-05
9.11157e-06
9.10741e-06
9.10866e-06
9.1078e-06
9.10749e-06
9.10737e-06
9.10695e-06
9.10693e-06
9.10683e-06
9.10671e-06
9.10662e-06
9.10657e-06
9.1065e-06
9.10652e-06
9.10668e-06
9.10694e-06
9.10732e-06
9.10792e-06
9.10908e-06
9.11065e-06
9.11287e-06
9.11578e-06
9.11902e-06
9.1224e-06
9.12717e-06
9.13365e-06
9.14109e-06
9.14779e-06
9.1512e-06
9.15168e-06
9.15261e-06
9.15877e-06
9.17006e-06
9.1799e-06
9.19077e-06
9.22767e-06
9.3293e-06
9.54986e-06
9.90008e-06
1.06198e-05
9.11208e-06
9.10757e-06
9.10889e-06
9.10799e-06
9.1076e-06
9.10747e-06
9.10707e-06
9.10706e-06
9.10695e-06
9.10691e-06
9.10679e-06
9.10677e-06
9.1067e-06
9.10666e-06
9.10676e-06
9.10698e-06
9.10731e-06
9.10782e-06
9.10877e-06
9.11015e-06
9.11207e-06
9.11477e-06
9.11816e-06
9.12157e-06
9.12549e-06
9.13062e-06
9.13702e-06
9.1442e-06
9.15014e-06
9.15287e-06
9.15205e-06
9.15074e-06
9.15415e-06
9.16241e-06
9.17485e-06
9.20502e-06
9.28603e-06
9.46696e-06
9.8082e-06
1.03037e-05
1.12752e-05
9.11259e-06
9.10779e-06
9.10905e-06
9.10819e-06
9.10771e-06
9.10757e-06
9.10722e-06
9.10718e-06
9.10709e-06
9.10709e-06
9.10698e-06
9.10696e-06
9.10691e-06
9.10684e-06
9.10688e-06
9.10704e-06
9.10732e-06
9.10782e-06
9.10859e-06
9.1098e-06
9.11148e-06
9.11381e-06
9.11709e-06
9.12072e-06
9.12448e-06
9.12883e-06
9.13399e-06
9.14002e-06
9.14637e-06
9.15144e-06
9.15317e-06
9.15037e-06
9.14684e-06
9.14797e-06
9.15664e-06
9.17929e-06
9.24124e-06
9.3903e-06
9.686e-06
1.01856e-05
1.08657e-05
1.22027e-05
9.11299e-06
9.10801e-06
9.10913e-06
9.10836e-06
9.10782e-06
9.10767e-06
9.1074e-06
9.10729e-06
9.10725e-06
9.10725e-06
9.10718e-06
9.10714e-06
9.10714e-06
9.10704e-06
9.10703e-06
9.10713e-06
9.10737e-06
9.10785e-06
9.10848e-06
9.10956e-06
9.11109e-06
9.11307e-06
9.116e-06
9.11966e-06
9.12354e-06
9.12773e-06
9.13225e-06
9.13704e-06
9.14217e-06
9.14733e-06
9.15134e-06
9.15104e-06
9.14588e-06
9.14138e-06
9.14594e-06
9.16006e-06
9.20283e-06
9.3169e-06
9.56419e-06
1.00094e-05
1.07138e-05
1.16568e-05
1.35304e-05
9.11317e-06
9.10818e-06
9.10916e-06
9.10847e-06
9.10792e-06
9.1078e-06
9.10759e-06
9.1074e-06
9.10741e-06
9.1074e-06
9.10739e-06
9.10732e-06
9.10735e-06
9.10728e-06
9.10722e-06
9.10726e-06
9.10745e-06
9.10787e-06
9.1084e-06
9.10934e-06
9.11078e-06
9.11256e-06
9.11509e-06
9.11853e-06
9.12247e-06
9.12672e-06
9.13113e-06
9.13544e-06
9.13942e-06
9.14317e-06
9.14694e-06
9.14875e-06
9.14546e-06
9.13958e-06
9.14441e-06
9.15392e-06
9.1783e-06
9.26064e-06
9.45022e-06
9.82953e-06
1.04742e-05
1.14551e-05
1.27772e-05
1.54684e-05
9.11317e-06
9.10828e-06
9.10921e-06
9.10854e-06
9.10806e-06
9.10794e-06
9.10776e-06
9.10755e-06
9.10757e-06
9.10755e-06
9.1076e-06
9.10752e-06
9.10755e-06
9.10753e-06
9.10743e-06
9.10741e-06
9.10755e-06
9.10788e-06
9.10831e-06
9.10914e-06
9.11047e-06
9.11218e-06
9.1144e-06
9.1175e-06
9.12133e-06
9.12557e-06
9.13001e-06
9.13441e-06
9.13818e-06
9.14086e-06
9.14289e-06
9.14436e-06
9.14266e-06
9.13756e-06
9.14595e-06
9.15758e-06
9.16878e-06
9.2263e-06
9.36671e-06
9.66487e-06
1.02254e-05
1.11302e-05
1.25005e-05
1.43821e-05
1.83932e-05
9.1131e-06
9.10832e-06
9.10931e-06
9.1086e-06
9.10824e-06
9.10807e-06
9.10792e-06
9.10772e-06
9.10771e-06
9.10772e-06
9.10778e-06
9.10774e-06
9.10774e-06
9.10777e-06
9.10768e-06
9.1076e-06
9.10766e-06
9.10789e-06
9.10824e-06
9.10896e-06
9.11016e-06
9.11182e-06
9.11385e-06
9.11663e-06
9.12022e-06
9.12434e-06
9.12875e-06
9.13329e-06
9.13745e-06
9.14022e-06
9.14109e-06
9.14087e-06
9.13881e-06
9.13369e-06
9.14452e-06
9.16132e-06
9.16841e-06
9.20722e-06
9.31746e-06
9.54612e-06
9.99719e-06
1.07939e-05
1.20563e-05
1.39898e-05
1.67397e-05
2.29848e-05
9.11309e-06
9.10835e-06
9.10951e-06
9.1087e-06
9.10848e-06
9.10821e-06
9.10806e-06
9.10793e-06
9.10786e-06
9.1079e-06
9.10795e-06
9.10797e-06
9.10794e-06
9.10798e-06
9.10793e-06
9.10782e-06
9.10779e-06
9.10791e-06
9.10822e-06
9.10881e-06
9.10986e-06
9.11144e-06
9.11336e-06
9.11589e-06
9.11922e-06
9.12313e-06
9.12746e-06
9.132e-06
9.13645e-06
9.13996e-06
9.14116e-06
9.13994e-06
9.1366e-06
9.1301e-06
9.13991e-06
9.1592e-06
9.16928e-06
9.1923e-06
9.28791e-06
9.47409e-06
9.83023e-06
1.04862e-05
1.16026e-05
1.33724e-05
1.61493e-05
2.03307e-05
3.07053e-05
9.11329e-06
9.10843e-06
9.1098e-06
9.10885e-06
9.10874e-06
9.10836e-06
9.10822e-06
9.10815e-06
9.108e-06
9.10809e-06
9.10812e-06
9.10819e-06
9.10816e-06
9.10818e-06
9.10818e-06
9.10807e-06
9.10795e-06
9.10798e-06
9.10824e-06
9.1087e-06
9.10958e-06
9.11103e-06
9.11289e-06
9.11525e-06
9.11832e-06
9.12199e-06
9.12623e-06
9.13069e-06
9.13511e-06
9.1392e-06
9.14157e-06
9.14089e-06
9.1371e-06
9.12936e-06
9.13574e-06
9.15323e-06
9.16618e-06
9.17681e-06
9.25807e-06
9.42626e-06
9.72362e-06
1.02574e-05
1.11904e-05
1.27527e-05
1.52642e-05
1.938e-05
2.6043e-05
5.67362e-05
9.11373e-06
9.1086e-06
9.11017e-06
9.10908e-06
9.10898e-06
9.10856e-06
9.1084e-06
9.10836e-06
9.10818e-06
9.10827e-06
9.10831e-06
9.10839e-06
9.10839e-06
9.10838e-06
9.10841e-06
9.10834e-06
9.10815e-06
9.10811e-06
9.10833e-06
9.10864e-06
9.10935e-06
9.11063e-06
9.11245e-06
9.11468e-06
9.11753e-06
9.12098e-06
9.12506e-06
9.12946e-06
9.13371e-06
9.13788e-06
9.14127e-06
9.14205e-06
9.13924e-06
9.13186e-06
9.13475e-06
9.14883e-06
9.16064e-06
9.16405e-06
9.21928e-06
9.37664e-06
9.64672e-06
1.01034e-05
1.08802e-05
1.21945e-05
1.43981e-05
1.80549e-05
2.442e-05
3.83975e-05
0.000329033
9.11439e-06
9.10888e-06
9.11057e-06
9.10936e-06
9.10919e-06
9.1088e-06
9.1086e-06
9.10856e-06
9.10839e-06
9.10845e-06
9.10851e-06
9.10859e-06
9.10864e-06
9.10861e-06
9.10864e-06
9.10861e-06
9.10843e-06
9.10832e-06
9.10848e-06
9.10868e-06
9.10921e-06
9.11029e-06
9.11201e-06
9.11418e-06
9.11684e-06
9.12012e-06
9.12397e-06
9.12826e-06
9.13243e-06
9.13642e-06
9.14018e-06
9.14233e-06
9.14127e-06
9.13583e-06
9.13648e-06
9.14872e-06
9.1575e-06
9.15776e-06
9.17904e-06
9.31483e-06
9.56683e-06
9.98465e-06
1.06624e-05
1.17716e-05
1.36258e-05
1.67986e-05
2.23262e-05
3.39405e-05
0.000179199
0.000993497
9.11511e-06
9.10922e-06
9.11093e-06
9.10969e-06
9.10937e-06
9.10907e-06
9.10879e-06
9.10875e-06
9.10863e-06
9.10863e-06
9.10873e-06
9.10879e-06
9.10888e-06
9.10886e-06
9.10887e-06
9.10888e-06
9.10877e-06
9.10863e-06
9.10868e-06
9.10883e-06
9.1092e-06
9.11006e-06
9.11159e-06
9.1137e-06
9.11622e-06
9.11938e-06
9.123e-06
9.12711e-06
9.13128e-06
9.13511e-06
9.13877e-06
9.14166e-06
9.14222e-06
9.13917e-06
9.13851e-06
9.15147e-06
9.15923e-06
9.15791e-06
9.15211e-06
9.24849e-06
9.47303e-06
9.86182e-06
1.04861e-05
1.14666e-05
1.30382e-05
1.56913e-05
2.04148e-05
2.95267e-05
0.000115483
0.000801713
0.00151359
9.11563e-06
9.10958e-06
9.11121e-06
9.11001e-06
9.10955e-06
9.10934e-06
9.10899e-06
9.10895e-06
9.1089e-06
9.10883e-06
9.10895e-06
9.10901e-06
9.10911e-06
9.10913e-06
9.10911e-06
9.10915e-06
9.10914e-06
9.109e-06
9.10893e-06
9.10908e-06
9.10933e-06
9.10999e-06
9.11125e-06
9.11323e-06
9.11565e-06
9.1187e-06
9.12217e-06
9.12608e-06
9.13023e-06
9.13405e-06
9.13746e-06
9.1405e-06
9.14206e-06
9.14084e-06
9.13907e-06
9.15394e-06
9.16384e-06
9.16296e-06
9.14607e-06
9.19248e-06
9.37665e-06
9.72367e-06
1.03043e-05
1.12128e-05
1.26079e-05
1.48464e-05
1.87508e-05
2.62191e-05
6.93905e-05
0.000653537
0.00144577
0.00182097
9.11617e-06
9.10984e-06
9.11143e-06
9.1103e-06
9.10975e-06
9.10959e-06
9.1092e-06
9.10918e-06
9.10916e-06
9.10905e-06
9.10917e-06
9.10924e-06
9.10934e-06
9.1094e-06
9.10938e-06
9.10942e-06
9.10949e-06
9.10939e-06
9.10922e-06
9.10937e-06
9.10958e-06
9.11006e-06
9.11103e-06
9.11276e-06
9.11511e-06
9.11803e-06
9.12141e-06
9.1252e-06
9.12932e-06
9.13319e-06
9.13643e-06
9.1393e-06
9.14128e-06
9.14109e-06
9.13827e-06
9.15404e-06
9.16778e-06
9.16987e-06
9.15466e-06
9.15726e-06
9.29488e-06
9.58514e-06
1.01059e-05
1.09521e-05
1.22469e-05
1.42236e-05
1.74801e-05
2.35027e-05
4.78774e-05
0.000500724
0.00136942
0.00183253
0.00198947
9.11656e-06
9.11017e-06
9.11156e-06
9.11055e-06
9.11e-06
9.10984e-06
9.10945e-06
9.10943e-06
9.10941e-06
9.10932e-06
9.10939e-06
9.1095e-06
9.10958e-06
9.10967e-06
9.10966e-06
9.10968e-06
9.1098e-06
9.10975e-06
9.10954e-06
9.10963e-06
9.10987e-06
9.11023e-06
9.11097e-06
9.11235e-06
9.11459e-06
9.11735e-06
9.12067e-06
9.12443e-06
9.12851e-06
9.13248e-06
9.1357e-06
9.13833e-06
9.14032e-06
9.14065e-06
9.13745e-06
9.15176e-06
9.16888e-06
9.17567e-06
9.16656e-06
9.14487e-06
9.23564e-06
9.46674e-06
9.9104e-06
1.06731e-05
1.1881e-05
1.37061e-05
1.65428e-05
2.14654e-05
3.67803e-05
0.00037686
0.00127481
0.00181513
0.00205569
0.00205462
9.11708e-06
9.11044e-06
9.1118e-06
9.11073e-06
9.11029e-06
9.11007e-06
9.10975e-06
9.10968e-06
9.10965e-06
9.10962e-06
9.10962e-06
9.10976e-06
9.10983e-06
9.10993e-06
9.10996e-06
9.10993e-06
9.11004e-06
9.11003e-06
9.10985e-06
9.10983e-06
9.1101e-06
9.11043e-06
9.11103e-06
9.11208e-06
9.11411e-06
9.11671e-06
9.11994e-06
9.12368e-06
9.12774e-06
9.13183e-06
9.13521e-06
9.13771e-06
9.13953e-06
9.14014e-06
9.1375e-06
9.14827e-06
9.16712e-06
9.17871e-06
9.17534e-06
9.14989e-06
9.19593e-06
9.377e-06
9.74208e-06
1.04014e-05
1.14965e-05
1.31957e-05
1.57798e-05
1.99751e-05
3.05386e-05
0.000278673
0.00117752
0.00179207
0.00207763
0.00215858
0.00204313
9.11783e-06
9.11078e-06
9.11206e-06
9.11099e-06
9.11058e-06
9.11033e-06
9.11009e-06
9.10994e-06
9.10992e-06
9.10993e-06
9.10989e-06
9.11002e-06
9.11011e-06
9.1102e-06
9.11025e-06
9.1102e-06
9.11025e-06
9.11025e-06
9.11015e-06
9.10998e-06
9.11024e-06
9.1106e-06
9.11117e-06
9.112e-06
9.1137e-06
9.11613e-06
9.11923e-06
9.1229e-06
9.12692e-06
9.13112e-06
9.1348e-06
9.13744e-06
9.13912e-06
9.13989e-06
9.13824e-06
9.14473e-06
9.1636e-06
9.17901e-06
9.18021e-06
9.16178e-06
9.16988e-06
9.31145e-06
9.60945e-06
1.01659e-05
1.1125e-05
1.26717e-05
1.50559e-05
1.87976e-05
2.66165e-05
0.00019885
0.00108152
0.00176833
0.00209938
0.00220832
0.00217189
0.00197629
9.11873e-06
9.11118e-06
9.11245e-06
9.11125e-06
9.111e-06
9.11057e-06
9.11045e-06
9.11021e-06
9.11021e-06
9.11025e-06
9.11019e-06
9.11029e-06
9.11041e-06
9.11048e-06
9.11055e-06
9.11049e-06
9.11047e-06
9.11048e-06
9.11045e-06
9.11017e-06
9.11031e-06
9.11073e-06
9.11132e-06
9.1121e-06
9.11345e-06
9.11563e-06
9.11858e-06
9.12213e-06
9.12605e-06
9.13027e-06
9.13432e-06
9.13737e-06
9.13917e-06
9.14003e-06
9.13916e-06
9.14173e-06
9.15938e-06
9.17727e-06
9.18253e-06
9.17168e-06
9.15526e-06
9.26185e-06
9.50613e-06
9.97507e-06
1.08008e-05
1.21699e-05
1.43361e-05
1.77332e-05
2.39468e-05
0.000132284
0.000977444
0.00174812
0.00211796
0.00226225
0.00224074
0.00211977
0.00187128
9.1196e-06
9.11162e-06
9.11294e-06
9.1116e-06
9.1114e-06
9.11091e-06
9.11074e-06
9.11053e-06
9.11052e-06
9.11056e-06
9.11054e-06
9.11058e-06
9.11072e-06
9.11079e-06
9.11086e-06
9.11082e-06
9.11076e-06
9.11077e-06
9.11077e-06
9.11049e-06
9.11041e-06
9.11082e-06
9.11146e-06
9.1123e-06
9.1134e-06
9.11526e-06
9.11798e-06
9.12137e-06
9.12519e-06
9.12934e-06
9.13364e-06
9.13724e-06
9.13951e-06
9.14055e-06
9.14003e-06
9.13958e-06
9.15499e-06
9.17404e-06
9.1833e-06
9.17739e-06
9.15264e-06
9.22371e-06
9.42259e-06
9.81966e-06
1.05318e-05
1.17295e-05
1.36575e-05
1.67164e-05
2.19342e-05
8.15658e-05
0.000849532
0.00172436
0.00213965
0.00231126
0.00231759
0.00220087
0.00202167
0.001742
9.12034e-06
9.11204e-06
9.11348e-06
9.11202e-06
9.11182e-06
9.11125e-06
9.11112e-06
9.11083e-06
9.11085e-06
9.11088e-06
9.11091e-06
9.11089e-06
9.11104e-06
9.11112e-06
9.11119e-06
9.1112e-06
9.11114e-06
9.11116e-06
9.11115e-06
9.11095e-06
9.11064e-06
9.11093e-06
9.11159e-06
9.11247e-06
9.1135e-06
9.11506e-06
9.11746e-06
9.12066e-06
9.12439e-06
9.12844e-06
9.13279e-06
9.13685e-06
9.1398e-06
9.14128e-06
9.141e-06
9.13865e-06
9.15061e-06
9.16962e-06
9.18272e-06
9.18014e-06
9.1594e-06
9.19628e-06
9.35474e-06
9.68819e-06
1.03055e-05
1.13578e-05
1.30631e-05
1.57799e-05
2.02817e-05
4.99295e-05
0.000693663
0.00168256
0.00216254
0.00236224
0.00238875
0.00229322
0.00210955
0.0018934
0.00159986
9.12104e-06
9.11242e-06
9.11399e-06
9.11248e-06
9.1122e-06
9.11165e-06
9.11143e-06
9.11127e-06
9.11113e-06
9.11123e-06
9.11129e-06
9.11126e-06
9.11137e-06
9.11148e-06
9.11155e-06
9.11162e-06
9.11158e-06
9.11163e-06
9.1116e-06
9.11153e-06
9.11107e-06
9.1111e-06
9.11173e-06
9.11256e-06
9.11365e-06
9.11504e-06
9.11706e-06
9.11999e-06
9.12364e-06
9.12762e-06
9.13188e-06
9.13615e-06
9.13972e-06
9.1419e-06
9.14216e-06
9.13931e-06
9.14654e-06
9.1644e-06
9.18054e-06
9.18128e-06
9.16791e-06
9.1788e-06
9.30301e-06
9.57714e-06
1.01081e-05
1.10376e-05
1.25567e-05
1.49681e-05
1.8885e-05
3.38682e-05
0.000524362
0.00160887
0.00217878
0.00241644
0.00246064
0.00238006
0.00221129
0.00198378
0.00174791
0.00145435
9.12187e-06
9.1128e-06
9.11441e-06
9.11293e-06
9.11256e-06
9.11208e-06
9.11176e-06
9.11167e-06
9.11152e-06
9.11154e-06
9.11168e-06
9.11167e-06
9.11172e-06
9.11186e-06
9.11193e-06
9.11206e-06
9.11206e-06
9.11212e-06
9.1121e-06
9.11213e-06
9.1117e-06
9.1114e-06
9.11188e-06
9.11262e-06
9.11373e-06
9.11514e-06
9.11685e-06
9.11942e-06
9.1229e-06
9.12686e-06
9.13098e-06
9.13524e-06
9.13918e-06
9.1421e-06
9.14333e-06
9.14136e-06
9.14345e-06
9.15893e-06
9.17662e-06
9.18124e-06
9.17245e-06
9.16862e-06
9.26686e-06
9.48871e-06
9.93673e-06
1.07521e-05
1.21142e-05
1.4278e-05
1.77239e-05
2.6417e-05
0.00036461
0.00149578
0.00217924
0.00247084
0.00253592
0.00246673
0.00230843
0.0020899
0.00183758
0.00159608
0.00131379
9.12289e-06
9.11323e-06
9.11478e-06
9.11335e-06
9.11289e-06
9.11252e-06
9.11211e-06
9.11209e-06
9.11187e-06
9.11197e-06
9.112e-06
9.11212e-06
9.11212e-06
9.11224e-06
9.11234e-06
9.11248e-06
9.11251e-06
9.11256e-06
9.11258e-06
9.11267e-06
9.11242e-06
9.11189e-06
9.11206e-06
9.1127e-06
9.11373e-06
9.11523e-06
9.11681e-06
9.119e-06
9.12217e-06
9.12605e-06
9.13013e-06
9.1343e-06
9.13834e-06
9.14179e-06
9.14417e-06
9.14384e-06
9.14206e-06
9.15383e-06
9.17134e-06
9.18011e-06
9.17258e-06
9.16269e-06
9.24211e-06
9.42324e-06
9.79587e-06
1.04991e-05
1.17134e-05
1.36728e-05
1.67589e-05
2.27868e-05
0.000229414
0.00134291
0.00215906
0.00251912
0.00261516
0.00255592
0.00240512
0.00219275
0.0019441
0.00168274
0.0014474
0.00118597
9.12394e-06
9.11367e-06
9.11517e-06
9.11372e-06
9.11322e-06
9.11294e-06
9.11248e-06
9.11249e-06
9.11229e-06
9.11235e-06
9.11245e-06
9.1125e-06
9.11257e-06
9.11266e-06
9.11277e-06
9.11289e-06
9.11293e-06
9.11293e-06
9.11299e-06
9.1131e-06
9.1131e-06
9.11255e-06
9.11233e-06
9.11288e-06
9.11373e-06
9.11524e-06
9.11687e-06
9.11877e-06
9.12152e-06
9.12518e-06
9.12927e-06
9.13343e-06
9.13746e-06
9.14115e-06
9.14438e-06
9.14573e-06
9.1427e-06
9.14965e-06
9.16553e-06
9.17778e-06
9.17121e-06
9.15952e-06
9.22321e-06
9.37566e-06
9.6871e-06
1.02857e-05
1.1352e-05
1.312e-05
1.59228e-05
2.0707e-05
0.000127249
0.0011538
0.00211791
0.00255595
0.00269505
0.00265034
0.00250318
0.00229549
0.00204882
0.00178667
0.00152961
0.00131085
0.00107891
9.12477e-06
9.11407e-06
9.11567e-06
9.11409e-06
9.11356e-06
9.11332e-06
9.11287e-06
9.11287e-06
9.11275e-06
9.11275e-06
9.11286e-06
9.113e-06
9.11298e-06
9.1131e-06
9.11321e-06
9.11329e-06
9.11333e-06
9.11326e-06
9.11333e-06
9.11342e-06
9.11364e-06
9.11329e-06
9.11276e-06
9.11318e-06
9.11385e-06
9.11519e-06
9.11689e-06
9.11871e-06
9.12105e-06
9.12432e-06
9.12837e-06
9.13263e-06
9.13669e-06
9.14043e-06
9.14398e-06
9.14659e-06
9.14488e-06
9.14686e-06
9.16007e-06
9.17418e-06
9.17059e-06
9.15844e-06
9.2067e-06
9.33838e-06
9.60432e-06
1.01149e-05
1.10399e-05
1.26143e-05
1.51597e-05
1.92763e-05
6.55497e-05
0.0009374
0.00205462
0.00257908
0.0027708
0.00274951
0.00260615
0.00239877
0.00215419
0.00189018
0.00162892
0.00138796
0.00119562
0.00100098
9.12532e-06
9.11438e-06
9.11624e-06
9.1145e-06
9.11393e-06
9.11367e-06
9.11329e-06
9.11325e-06
9.11323e-06
9.11317e-06
9.11331e-06
9.11344e-06
9.11354e-06
9.11351e-06
9.11367e-06
9.11372e-06
9.11376e-06
9.11364e-06
9.11365e-06
9.11369e-06
9.114e-06
9.114e-06
9.11337e-06
9.11356e-06
9.11413e-06
9.11517e-06
9.11685e-06
9.11869e-06
9.12079e-06
9.12363e-06
9.12745e-06
9.13179e-06
9.13601e-06
9.1398e-06
9.14324e-06
9.14652e-06
9.14723e-06
9.14579e-06
9.15548e-06
9.16955e-06
9.17096e-06
9.15822e-06
9.19223e-06
9.30615e-06
9.53763e-06
9.97989e-06
1.07827e-05
1.2168e-05
1.44542e-05
1.81221e-05
3.75004e-05
0.000708526
0.00196324
0.00258752
0.00283894
0.00285025
0.00271567
0.0025059
0.00225982
0.00199535
0.00172901
0.00148159
0.00126779
0.00111137
0.000959794
9.12583e-06
9.11465e-06
9.1168e-06
9.11495e-06
9.11434e-06
9.11401e-06
9.11373e-06
9.11362e-06
9.11369e-06
9.11362e-06
9.11376e-06
9.1139e-06
9.11404e-06
9.11409e-06
9.1141e-06
9.11421e-06
9.11427e-06
9.11413e-06
9.11406e-06
9.11402e-06
9.11426e-06
9.11453e-06
9.11411e-06
9.11401e-06
9.11452e-06
9.11528e-06
9.1168e-06
9.11866e-06
9.1207e-06
9.12322e-06
9.1266e-06
9.13082e-06
9.13523e-06
9.13921e-06
9.14253e-06
9.14592e-06
9.14844e-06
9.14649e-06
9.15194e-06
9.16457e-06
9.17104e-06
9.15826e-06
9.18092e-06
9.27785e-06
9.47969e-06
9.86813e-06
1.05727e-05
1.17899e-05
1.3819e-05
1.71027e-05
2.64754e-05
0.000489001
0.00183155
0.00257939
0.00289782
0.00294882
0.00283057
0.00261971
0.00236823
0.00210101
0.00183178
0.00157694
0.0013557
0.00117963
0.00106701
0.00095823
9.12668e-06
9.11499e-06
9.11727e-06
9.11541e-06
9.11479e-06
9.11436e-06
9.11417e-06
9.114e-06
9.11413e-06
9.1141e-06
9.11423e-06
9.11439e-06
9.11456e-06
9.11463e-06
9.11469e-06
9.11469e-06
9.11488e-06
9.11479e-06
9.11461e-06
9.1145e-06
9.11455e-06
9.11491e-06
9.11487e-06
9.11454e-06
9.11494e-06
9.11555e-06
9.11683e-06
9.1186e-06
9.12065e-06
9.12302e-06
9.12594e-06
9.12978e-06
9.13424e-06
9.13853e-06
9.14202e-06
9.14528e-06
9.14859e-06
9.14838e-06
9.14962e-06
9.15994e-06
9.16953e-06
9.15845e-06
9.17326e-06
9.25458e-06
9.4285e-06
9.77009e-06
1.03949e-05
1.14729e-05
1.3267e-05
1.61871e-05
2.2015e-05
0.000300217
0.00164559
0.00255035
0.00294648
0.00304277
0.00294784
0.00274085
0.0024825
0.00220872
0.00193566
0.0016759
0.00144599
0.00126286
0.00113323
0.00106623
0.000995673
9.12811e-06
9.11553e-06
9.11771e-06
9.11582e-06
9.11524e-06
9.11472e-06
9.11461e-06
9.1144e-06
9.11453e-06
9.1146e-06
9.11469e-06
9.1149e-06
9.11508e-06
9.11521e-06
9.11526e-06
9.11537e-06
9.11545e-06
9.11556e-06
9.11534e-06
9.11515e-06
9.11503e-06
9.11524e-06
9.11554e-06
9.11514e-06
9.11536e-06
9.11593e-06
9.11702e-06
9.11859e-06
9.12059e-06
9.12293e-06
9.12552e-06
9.12882e-06
9.13306e-06
9.13762e-06
9.1416e-06
9.1449e-06
9.14831e-06
9.15003e-06
9.14881e-06
9.1561e-06
9.16625e-06
9.1588e-06
9.16854e-06
9.2369e-06
9.38518e-06
9.68268e-06
1.02369e-05
1.1199e-05
1.27928e-05
1.53796e-05
1.98257e-05
0.000155549
0.00139728
0.00249449
0.00298267
0.00313108
0.00306468
0.00286765
0.00260454
0.0023212
0.00204134
0.00177681
0.00154067
0.00134889
0.00121395
0.00113285
0.00110807
0.00107012
9.12999e-06
9.11631e-06
9.11825e-06
9.11622e-06
9.11563e-06
9.11509e-06
9.11502e-06
9.11482e-06
9.11491e-06
9.11509e-06
9.11516e-06
9.11542e-06
9.11562e-06
9.11581e-06
9.1159e-06
9.11602e-06
9.11619e-06
9.11623e-06
9.11617e-06
9.11596e-06
9.11572e-06
9.11571e-06
9.11608e-06
9.11584e-06
9.11586e-06
9.11638e-06
9.11732e-06
9.11872e-06
9.12057e-06
9.12283e-06
9.12528e-06
9.12814e-06
9.13192e-06
9.13647e-06
9.141e-06
9.14469e-06
9.14802e-06
9.15072e-06
9.14962e-06
9.15327e-06
9.16216e-06
9.15908e-06
9.16564e-06
9.22375e-06
9.35036e-06
9.60695e-06
1.0094e-05
1.09521e-05
1.23758e-05
1.4674e-05
1.84281e-05
6.81104e-05
0.00109595
0.00240394
0.00300239
0.00321252
0.00317957
0.0029976
0.00273415
0.00244094
0.00215088
0.00187972
0.00163817
0.00143986
0.00129763
0.00121395
0.00117732
0.00118961
0.00117497
9.13188e-06
9.11723e-06
9.11904e-06
9.11669e-06
9.11599e-06
9.11548e-06
9.11538e-06
9.11526e-06
9.11529e-06
9.11555e-06
9.11565e-06
9.11592e-06
9.11617e-06
9.1164e-06
9.11656e-06
9.11671e-06
9.11684e-06
9.11706e-06
9.11689e-06
9.11683e-06
9.1166e-06
9.11641e-06
9.11661e-06
9.11662e-06
9.11652e-06
9.11689e-06
9.11769e-06
9.11898e-06
9.12066e-06
9.12274e-06
9.12515e-06
9.12779e-06
9.13104e-06
9.13523e-06
9.13999e-06
9.14424e-06
9.14772e-06
9.15069e-06
9.15122e-06
9.15167e-06
9.15848e-06
9.15911e-06
9.16387e-06
9.21338e-06
9.32267e-06
9.5436e-06
9.96714e-06
1.07253e-05
1.19955e-05
1.40467e-05
1.73501e-05
3.40525e-05
0.000775186
0.00226706
0.00299991
0.00328465
0.0032916
0.00312882
0.00286965
0.00256891
0.00226672
0.00198593
0.00173818
0.00153441
0.00138652