/*--------------------------------*- C++ -*----------------------------------*\
  =========                 |
  \\      /  F ield         | OpenFOAM: The Open Source CFD Toolbox
   \\    /   O peration     | Website:  https://openfoam.org
    \\  /    A nd           | Version:  dev
     \\/     M anipulation  |
\*---------------------------------------------------------------------------*/
FoamFile
{
    version     2.0;
    format      ascii;
    class       volScalarField;
    location    "125";
    object      nuTilda;
}
// * * * * * * * * * * * * * * * * * * * * * * * * * * * * * * * * * * * * * //

dimensions      [0 2 -1 0 0 0 0];

internalField   nonuniform List<scalar> 
29380
(
6.00545e-05
6.00484e-05
6.00412e-05
6.00454e-05
6.00368e-05
6.00211e-05
6.00422e-05
6.00343e-05
6.00199e-05
6.00261e-05
6.00398e-05
6.00317e-05
6.00187e-05
6.0024e-05
6.00099e-05
6.00378e-05
6.00297e-05
6.00173e-05
6.00226e-05
6.001e-05
6.00095e-05
6.0036e-05
6.00281e-05
6.00163e-05
6.0021e-05
6.00094e-05
6.00096e-05
6.00063e-05
6.00341e-05
6.00269e-05
6.00157e-05
6.00199e-05
6.00089e-05
6.00092e-05
6.00059e-05
6.00098e-05
6.0032e-05
6.00255e-05
6.00154e-05
6.0019e-05
6.00088e-05
6.00089e-05
6.00053e-05
6.00087e-05
6.00146e-05
6.003e-05
6.00241e-05
6.00152e-05
6.00183e-05
6.0009e-05
6.00089e-05
6.00048e-05
6.00077e-05
6.00128e-05
6.00203e-05
6.00281e-05
6.00225e-05
6.00149e-05
6.00176e-05
6.00093e-05
6.0009e-05
6.00047e-05
6.00067e-05
6.00117e-05
6.00174e-05
6.00254e-05
6.00265e-05
6.00209e-05
6.00146e-05
6.00168e-05
6.00095e-05
6.00092e-05
6.00049e-05
6.00062e-05
6.00106e-05
6.00159e-05
6.00219e-05
6.00315e-05
6.00251e-05
6.00196e-05
6.00141e-05
6.0016e-05
6.00094e-05
6.00094e-05
6.00052e-05
6.00061e-05
6.00097e-05
6.00142e-05
6.00203e-05
6.00267e-05
6.00373e-05
6.00238e-05
6.00186e-05
6.00136e-05
6.00153e-05
6.00092e-05
6.00093e-05
6.00054e-05
6.00062e-05
6.00091e-05
6.0013e-05
6.00183e-05
6.0025e-05
6.00313e-05
6.00441e-05
6.00227e-05
6.00177e-05
6.00131e-05
6.00147e-05
6.00089e-05
6.00091e-05
6.00055e-05
6.00062e-05
6.00087e-05
6.00121e-05
6.00165e-05
6.00229e-05
6.00293e-05
6.00366e-05
6.00505e-05
6.00218e-05
6.00169e-05
6.00128e-05
6.00143e-05
6.00086e-05
6.00089e-05
6.00056e-05
6.0006e-05
6.00083e-05
6.00114e-05
6.0015e-05
6.0021e-05
6.00271e-05
6.00344e-05
6.00413e-05
6.00578e-05
6.00211e-05
6.00162e-05
6.00127e-05
6.00139e-05
6.00085e-05
6.00088e-05
6.00057e-05
6.00057e-05
6.00078e-05
6.00107e-05
6.00138e-05
6.0019e-05
6.00251e-05
6.00322e-05
6.00393e-05
6.00463e-05
6.00658e-05
6.00207e-05
6.00155e-05
6.00126e-05
6.00137e-05
6.00087e-05
6.00087e-05
6.00058e-05
6.00054e-05
6.00073e-05
6.00099e-05
6.00128e-05
6.0017e-05
6.00227e-05
6.00299e-05
6.00374e-05
6.00446e-05
6.00513e-05
6.00753e-05
6.00205e-05
6.00149e-05
6.00125e-05
6.00133e-05
6.0009e-05
6.00087e-05
6.00061e-05
6.00052e-05
6.00068e-05
6.00091e-05
6.0012e-05
6.00153e-05
6.00202e-05
6.0027e-05
6.00352e-05
6.00435e-05
6.00497e-05
6.00567e-05
6.00862e-05
6.00203e-05
6.00144e-05
6.00122e-05
6.0013e-05
6.00093e-05
6.00088e-05
6.00064e-05
6.00053e-05
6.00063e-05
6.00083e-05
6.00111e-05
6.00141e-05
6.0018e-05
6.00238e-05
6.00316e-05
6.00416e-05
6.00498e-05
6.00549e-05
6.00625e-05
6.00984e-05
6.002e-05
6.0014e-05
6.00119e-05
6.00126e-05
6.00094e-05
6.00089e-05
6.00068e-05
6.00055e-05
6.00061e-05
6.00076e-05
6.00102e-05
6.00131e-05
6.00163e-05
6.0021e-05
6.00274e-05
6.00373e-05
6.00487e-05
6.00566e-05
6.00604e-05
6.00685e-05
6.0112e-05
6.00194e-05
6.00136e-05
6.00116e-05
6.00122e-05
6.00093e-05
6.00091e-05
6.00071e-05
6.00059e-05
6.00061e-05
6.00072e-05
6.00092e-05
6.00122e-05
6.0015e-05
6.0019e-05
6.00237e-05
6.00318e-05
6.00441e-05
6.00569e-05
6.00641e-05
6.00661e-05
6.00749e-05
6.01269e-05
6.00189e-05
6.00132e-05
6.00114e-05
6.00119e-05
6.00092e-05
6.00091e-05
6.00073e-05
6.00063e-05
6.00062e-05
6.0007e-05
6.00084e-05
6.00111e-05
6.00139e-05
6.00175e-05
6.00214e-05
6.00269e-05
6.00371e-05
6.00522e-05
6.00662e-05
6.00724e-05
6.00722e-05
6.00818e-05
6.0143e-05
6.00184e-05
6.00128e-05
6.00113e-05
6.00116e-05
6.00091e-05
6.00091e-05
6.00074e-05
6.00067e-05
6.00064e-05
6.0007e-05
6.0008e-05
6.00101e-05
6.00127e-05
6.00162e-05
6.002e-05
6.00239e-05
6.00306e-05
6.00437e-05
6.00615e-05
6.00768e-05
6.00816e-05
6.00784e-05
6.00888e-05
6.01595e-05
6.0018e-05
6.00124e-05
6.00114e-05
6.00114e-05
6.00092e-05
6.00092e-05
6.00074e-05
6.00069e-05
6.00065e-05
6.0007e-05
6.00079e-05
6.00094e-05
6.00116e-05
6.00147e-05
6.00187e-05
6.00226e-05
6.00268e-05
6.00354e-05
6.00515e-05
6.00723e-05
6.00889e-05
6.00914e-05
6.00849e-05
6.00952e-05
6.01762e-05
6.00176e-05
6.00121e-05
6.00117e-05
6.00113e-05
6.00094e-05
6.00093e-05
6.00076e-05
6.00071e-05
6.00065e-05
6.0007e-05
6.00078e-05
6.0009e-05
6.00107e-05
6.00133e-05
6.00169e-05
6.00214e-05
6.00253e-05
6.00302e-05
6.00411e-05
6.00604e-05
6.00845e-05
6.01018e-05
6.01019e-05
6.00907e-05
6.01008e-05
6.01923e-05
6.00172e-05
6.00118e-05
6.00119e-05
6.00113e-05
6.00095e-05
6.00093e-05
6.00079e-05
6.00072e-05
6.00066e-05
6.00069e-05
6.00078e-05
6.00088e-05
6.00102e-05
6.00122e-05
6.0015e-05
6.00197e-05
6.00244e-05
6.00283e-05
6.00345e-05
6.00476e-05
6.00703e-05
6.00977e-05
6.0116e-05
6.01124e-05
6.00958e-05
6.01055e-05
6.02066e-05
6.0017e-05
6.00115e-05
6.00121e-05
6.00114e-05
6.00096e-05
6.00094e-05
6.00082e-05
6.00074e-05
6.00067e-05
6.00069e-05
6.00076e-05
6.00087e-05
6.00099e-05
6.00115e-05
6.00135e-05
6.00174e-05
6.00228e-05
6.00277e-05
6.00321e-05
6.00396e-05
6.00549e-05
6.00812e-05
6.01123e-05
6.01309e-05
6.01229e-05
6.00999e-05
6.01083e-05
6.02197e-05
6.00171e-05
6.00113e-05
6.00122e-05
6.00115e-05
6.00097e-05
6.00095e-05
6.00085e-05
6.00077e-05
6.0007e-05
6.00069e-05
6.00074e-05
6.00084e-05
6.00096e-05
6.00112e-05
6.00127e-05
6.00154e-05
6.00202e-05
6.00262e-05
6.00314e-05
6.00368e-05
6.00453e-05
6.00629e-05
6.00933e-05
6.01279e-05
6.01462e-05
6.01324e-05
6.01025e-05
6.01097e-05
6.02299e-05
6.00175e-05
6.00112e-05
6.00122e-05
6.00116e-05
6.00097e-05
6.00096e-05
6.00087e-05
6.0008e-05
6.00074e-05
6.0007e-05
6.00074e-05
6.00082e-05
6.00093e-05
6.00108e-05
6.00124e-05
6.00141e-05
6.00177e-05
6.00236e-05
6.00301e-05
6.00362e-05
6.00422e-05
6.00515e-05
6.00717e-05
6.0106e-05
6.01441e-05
6.01608e-05
6.01409e-05
6.01038e-05
6.01087e-05
6.0237e-05
6.00182e-05
6.00113e-05
6.00122e-05
6.00116e-05
6.00097e-05
6.00097e-05
6.00088e-05
6.00083e-05
6.00077e-05
6.00073e-05
6.00074e-05
6.0008e-05
6.00089e-05
6.00104e-05
6.00121e-05
6.00137e-05
6.0016e-05
6.00207e-05
6.00273e-05
6.00347e-05
6.00419e-05
6.00484e-05
6.00584e-05
6.00808e-05
6.01194e-05
6.01595e-05
6.01743e-05
6.01479e-05
6.0103e-05
6.01056e-05
6.0243e-05
6.00188e-05
6.00114e-05
6.00122e-05
6.00115e-05
6.00098e-05
6.00098e-05
6.0009e-05
6.00086e-05
6.00079e-05
6.00076e-05
6.00076e-05
6.00079e-05
6.00086e-05
6.00099e-05
6.00116e-05
6.00134e-05
6.00152e-05
6.00185e-05
6.00241e-05
6.00315e-05
6.00403e-05
6.00485e-05
6.00551e-05
6.00655e-05
6.00905e-05
6.01322e-05
6.01738e-05
6.01863e-05
6.01524e-05
6.01011e-05
6.01023e-05
6.02513e-05
6.0019e-05
6.00116e-05
6.00123e-05
6.00115e-05
6.00101e-05
6.00099e-05
6.00092e-05
6.00089e-05
6.00082e-05
6.00079e-05
6.00077e-05
6.0008e-05
6.00085e-05
6.00094e-05
6.0011e-05
6.0013e-05
6.00148e-05
6.00174e-05
6.00217e-05
6.0028e-05
6.00366e-05
6.00469e-05
6.00558e-05
6.0062e-05
6.0073e-05
6.00998e-05
6.01437e-05
6.01867e-05
6.01953e-05
6.0155e-05
6.00986e-05
6.01015e-05
6.0271e-05
6.00188e-05
6.00116e-05
6.00123e-05
6.00115e-05
6.00104e-05
6.001e-05
6.00094e-05
6.00091e-05
6.00085e-05
6.00082e-05
6.0008e-05
6.00081e-05
6.00085e-05
6.00092e-05
6.00103e-05
6.00122e-05
6.00144e-05
6.00168e-05
6.00202e-05
6.00252e-05
6.00324e-05
6.00426e-05
6.00545e-05
6.00635e-05
6.00693e-05
6.00803e-05
6.0108e-05
6.01539e-05
6.01964e-05
6.02008e-05
6.01544e-05
6.00968e-05
6.01094e-05
6.03137e-05
6.00184e-05
6.00115e-05
6.00123e-05
6.00116e-05
6.00107e-05
6.00101e-05
6.00096e-05
6.00093e-05
6.00088e-05
6.00085e-05
6.00083e-05
6.00083e-05
6.00086e-05
6.00091e-05
6.00099e-05
6.00114e-05
6.00136e-05
6.00162e-05
6.00193e-05
6.00236e-05
6.00292e-05
6.00374e-05
6.00496e-05
6.00626e-05
6.00714e-05
6.00765e-05
6.00869e-05
6.0115e-05
6.01615e-05
6.02014e-05
6.02008e-05
6.01499e-05
6.01004e-05
6.01365e-05
6.03979e-05
6.00181e-05
6.00113e-05
6.00124e-05
6.00116e-05
6.00109e-05
6.00103e-05
6.00098e-05
6.00095e-05
6.00092e-05
6.00088e-05
6.00086e-05
6.00085e-05
6.00087e-05
6.00092e-05
6.00098e-05
6.00108e-05
6.00127e-05
6.00153e-05
6.00184e-05
6.00224e-05
6.00274e-05
6.00336e-05
6.00434e-05
6.00573e-05
6.00709e-05
6.00791e-05
6.00831e-05
6.00923e-05
6.01201e-05
6.01644e-05
6.02002e-05
6.01933e-05
6.01447e-05
6.01213e-05
6.02001e-05
6.05522e-05
6.00179e-05
6.00111e-05
6.00126e-05
6.00116e-05
6.00111e-05
6.00106e-05
6.001e-05
6.00098e-05
6.00095e-05
6.00091e-05
6.00089e-05
6.00088e-05
6.00089e-05
6.00092e-05
6.00098e-05
6.00105e-05
6.00119e-05
6.00141e-05
6.00172e-05
6.00211e-05
6.00261e-05
6.00315e-05
6.00387e-05
6.00502e-05
6.00653e-05
6.00788e-05
6.00863e-05
6.00887e-05
6.00963e-05
6.01218e-05
6.0162e-05
6.01907e-05
6.01807e-05
6.01507e-05
6.01758e-05
6.03249e-05
6.0812e-05
6.00182e-05
6.00111e-05
6.0013e-05
6.00117e-05
6.00112e-05
6.00109e-05
6.00101e-05
6.001e-05
6.00098e-05
6.00094e-05
6.00093e-05
6.00091e-05
6.00091e-05
6.00093e-05
6.00098e-05
6.00104e-05
6.00115e-05
6.00131e-05
6.00159e-05
6.00196e-05
6.00245e-05
6.00301e-05
6.00362e-05
6.00445e-05
6.00575e-05
6.00729e-05
6.00861e-05
6.00925e-05
6.00928e-05
6.00983e-05
6.01195e-05
6.01529e-05
6.01748e-05
6.01726e-05
6.01809e-05
6.0283e-05
6.05379e-05
6.12058e-05
6.00188e-05
6.00112e-05
6.00135e-05
6.00119e-05
6.00114e-05
6.00111e-05
6.00103e-05
6.00103e-05
6.00101e-05
6.00098e-05
6.00096e-05
6.00095e-05
6.00094e-05
6.00095e-05
6.00099e-05
6.00104e-05
6.00112e-05
6.00125e-05
6.00149e-05
6.00181e-05
6.00227e-05
6.00285e-05
6.00348e-05
6.00414e-05
6.00511e-05
6.00646e-05
6.00798e-05
6.00924e-05
6.0097e-05
6.00957e-05
6.00974e-05
6.01128e-05
6.01389e-05
6.01586e-05
6.01782e-05
6.02495e-05
6.0462e-05
6.0866e-05
6.17787e-05
6.00198e-05
6.00115e-05
6.0014e-05
6.00123e-05
6.00115e-05
6.00113e-05
6.00105e-05
6.00105e-05
6.00103e-05
6.00102e-05
6.00099e-05
6.00099e-05
6.00097e-05
6.00097e-05
6.001e-05
6.00105e-05
6.00112e-05
6.00122e-05
6.00142e-05
6.0017e-05
6.00209e-05
6.00265e-05
6.00332e-05
6.00398e-05
6.00474e-05
6.00579e-05
6.00711e-05
6.00857e-05
6.00968e-05
6.01001e-05
6.00959e-05
6.00929e-05
6.01025e-05
6.01221e-05
6.01478e-05
6.02097e-05
6.03728e-05
6.07467e-05
6.13641e-05
6.25904e-05
6.00208e-05
6.00119e-05
6.00143e-05
6.00127e-05
6.00118e-05
6.00115e-05
6.00108e-05
6.00107e-05
6.00105e-05
6.00105e-05
6.00103e-05
6.00102e-05
6.00101e-05
6.001e-05
6.00102e-05
6.00105e-05
6.00112e-05
6.00122e-05
6.00138e-05
6.00163e-05
6.00197e-05
6.00244e-05
6.0031e-05
6.00382e-05
6.00454e-05
6.00539e-05
6.00643e-05
6.00767e-05
6.00897e-05
6.00992e-05
6.01004e-05
6.00922e-05
6.00848e-05
6.00891e-05
6.01078e-05
6.01558e-05
6.02857e-05
6.05884e-05
6.11913e-05
6.20799e-05
6.3691e-05
6.00216e-05
6.00123e-05
6.00144e-05
6.0013e-05
6.00119e-05
6.00117e-05
6.00111e-05
6.00109e-05
6.00108e-05
6.00108e-05
6.00107e-05
6.00106e-05
6.00105e-05
6.00104e-05
6.00104e-05
6.00107e-05
6.00112e-05
6.00122e-05
6.00135e-05
6.00157e-05
6.00188e-05
6.00228e-05
6.00287e-05
6.00361e-05
6.00437e-05
6.00518e-05
6.00605e-05
6.007e-05
6.00806e-05
6.00913e-05
6.00987e-05
6.00959e-05
6.00832e-05
6.00736e-05
6.00815e-05
6.01112e-05
6.02034e-05
6.04412e-05
6.09427e-05
6.18331e-05
6.30516e-05
6.51838e-05
6.0022e-05
6.00127e-05
6.00145e-05
6.00132e-05
6.00121e-05
6.00119e-05
6.00115e-05
6.00111e-05
6.00111e-05
6.00111e-05
6.00111e-05
6.00109e-05
6.00109e-05
6.00108e-05
6.00107e-05
6.00109e-05
6.00113e-05
6.00122e-05
6.00133e-05
6.00153e-05
6.00181e-05
6.00217e-05
6.00268e-05
6.00337e-05
6.00415e-05
6.00498e-05
6.00583e-05
6.00665e-05
6.00743e-05
6.00821e-05
6.00901e-05
6.00931e-05
6.00845e-05
6.00708e-05
6.0077e-05
6.00936e-05
6.01477e-05
6.03201e-05
6.07126e-05
6.14715e-05
6.27266e-05
6.43676e-05
6.72048e-05
6.0022e-05
6.00129e-05
6.00145e-05
6.00133e-05
6.00124e-05
6.00122e-05
6.00118e-05
6.00114e-05
6.00114e-05
6.00114e-05
6.00115e-05
6.00113e-05
6.00113e-05
6.00112e-05
6.00111e-05
6.00111e-05
6.00114e-05
6.00122e-05
6.00131e-05
6.00148e-05
6.00175e-05
6.00209e-05
6.00253e-05
6.00315e-05
6.00392e-05
6.00475e-05
6.00562e-05
6.00646e-05
6.00716e-05
6.00765e-05
6.00809e-05
6.00842e-05
6.00802e-05
6.00687e-05
6.00828e-05
6.01009e-05
6.01241e-05
6.02454e-05
6.05331e-05
6.11418e-05
6.224e-05
6.3944e-05
6.61404e-05
6.99482e-05
6.00218e-05
6.00129e-05
6.00147e-05
6.00134e-05
6.00127e-05
6.00124e-05
6.00121e-05
6.00117e-05
6.00117e-05
6.00117e-05
6.00118e-05
6.00117e-05
6.00117e-05
6.00117e-05
6.00115e-05
6.00114e-05
6.00116e-05
6.00122e-05
6.00129e-05
6.00144e-05
6.00169e-05
6.00202e-05
6.00242e-05
6.00297e-05
6.00369e-05
6.0045e-05
6.00537e-05
6.00625e-05
6.00703e-05
6.00751e-05
6.00763e-05
6.00761e-05
6.00721e-05
6.00617e-05
6.00831e-05
6.01131e-05
6.01227e-05
6.02059e-05
6.04276e-05
6.08905e-05
6.1793e-05
6.33081e-05
6.55897e-05
6.85228e-05
7.37255e-05
6.00217e-05
6.00129e-05
6.0015e-05
6.00136e-05
6.00131e-05
6.00127e-05
6.00124e-05
6.00121e-05
6.0012e-05
6.0012e-05
6.00121e-05
6.00121e-05
6.00121e-05
6.00121e-05
6.0012e-05
6.00118e-05
6.00118e-05
6.00121e-05
6.00128e-05
6.00141e-05
6.00162e-05
6.00194e-05
6.00232e-05
6.00282e-05
6.00348e-05
6.00425e-05
6.0051e-05
6.00599e-05
6.00685e-05
6.00749e-05
6.00763e-05
6.00733e-05
6.00665e-05
6.00536e-05
6.00746e-05
6.01125e-05
6.01271e-05
6.01772e-05
6.03701e-05
6.07399e-05
6.14486e-05
6.27243e-05
6.47681e-05
6.78059e-05
7.1741e-05
7.90405e-05
6.00219e-05
6.0013e-05
6.00155e-05
6.00138e-05
6.00136e-05
6.00129e-05
6.00127e-05
6.00125e-05
6.00122e-05
6.00124e-05
6.00125e-05
6.00126e-05
6.00125e-05
6.00125e-05
6.00125e-05
6.00123e-05
6.00121e-05
6.00122e-05
6.00128e-05
6.00138e-05
6.00156e-05
6.00185e-05
6.00222e-05
6.00269e-05
6.00329e-05
6.00401e-05
6.00485e-05
6.00572e-05
6.00658e-05
6.00737e-05
6.00776e-05
6.00751e-05
6.00668e-05
6.00507e-05
6.0065e-05
6.01009e-05
6.01245e-05
6.01455e-05
6.03167e-05
6.06483e-05
6.1232e-05
6.22681e-05
6.4018e-05
6.67439e-05
7.07883e-05
7.61642e-05
8.70411e-05
6.00227e-05
6.00133e-05
6.00162e-05
6.00142e-05
6.00141e-05
6.00133e-05
6.0013e-05
6.00129e-05
6.00126e-05
6.00127e-05
6.00128e-05
6.00129e-05
6.00129e-05
6.00129e-05
6.00129e-05
6.00127e-05
6.00124e-05
6.00124e-05
6.00129e-05
6.00136e-05
6.00151e-05
6.00177e-05
6.00213e-05
6.00257e-05
6.00313e-05
6.0038e-05
6.00461e-05
6.00546e-05
6.00629e-05
6.00711e-05
6.00773e-05
6.00779e-05
6.00711e-05
6.00551e-05
6.00617e-05
6.00903e-05
6.01141e-05
6.01175e-05
6.02419e-05
6.05584e-05
6.10869e-05
6.1966e-05
6.3425e-05
6.57805e-05
6.94027e-05
7.48526e-05
8.24351e-05
0.000113131
6.00239e-05
6.00138e-05
6.0017e-05
6.00147e-05
6.00145e-05
6.00137e-05
6.00134e-05
6.00133e-05
6.00129e-05
6.00131e-05
6.00132e-05
6.00133e-05
6.00134e-05
6.00133e-05
6.00134e-05
6.00133e-05
6.00129e-05
6.00127e-05
6.00131e-05
6.00136e-05
6.00147e-05
6.00169e-05
6.00204e-05
6.00246e-05
6.00299e-05
6.00363e-05
6.00438e-05
6.00522e-05
6.00602e-05
6.0068e-05
6.00753e-05
6.00789e-05
6.00757e-05
6.00633e-05
6.00648e-05
6.00887e-05
6.01064e-05
6.01038e-05
6.01567e-05
6.04405e-05
6.0941e-05
6.17465e-05
6.30154e-05
6.50128e-05
6.81549e-05
7.30055e-05
8.05408e-05
9.50955e-05
0.000348195
6.00253e-05
6.00144e-05
6.00177e-05
6.00153e-05
6.00148e-05
6.00142e-05
6.00137e-05
6.00136e-05
6.00134e-05
6.00134e-05
6.00136e-05
6.00137e-05
6.00138e-05
6.00138e-05
6.00138e-05
6.00138e-05
6.00135e-05
6.00133e-05
6.00135e-05
6.00138e-05
6.00146e-05
6.00164e-05
6.00195e-05
6.00237e-05
6.00286e-05
6.00348e-05
6.00418e-05
6.00498e-05
6.00578e-05
6.00652e-05
6.00723e-05
6.00777e-05
6.00781e-05
6.00708e-05
6.00695e-05
6.00943e-05
6.01086e-05
6.01042e-05
6.00931e-05
6.03059e-05
6.07616e-05
6.15237e-05
6.26993e-05
6.44669e-05
6.71527e-05
7.13546e-05
7.79803e-05
9.0432e-05
0.000217058
0.000995401
6.00265e-05
6.00151e-05
6.00182e-05
6.0016e-05
6.00151e-05
6.00147e-05
6.00141e-05
6.0014e-05
6.00139e-05
6.00138e-05
6.0014e-05
6.00141e-05
6.00143e-05
6.00143e-05
6.00142e-05
6.00143e-05
6.00142e-05
6.00139e-05
6.00139e-05
6.00142e-05
6.00148e-05
6.00162e-05
6.00188e-05
6.00227e-05
6.00274e-05
6.00334e-05
6.00401e-05
6.00477e-05
6.00557e-05
6.00629e-05
6.00694e-05
6.00753e-05
6.00779e-05
6.00747e-05
6.00711e-05
6.01003e-05
6.01182e-05
6.01147e-05
6.00744e-05
6.0186e-05
6.05674e-05
6.12621e-05
6.23758e-05
6.40301e-05
6.64257e-05
7.00171e-05
7.57231e-05
8.56032e-05
0.000164594
0.000804833
0.00151426
6.00272e-05
6.00157e-05
6.00186e-05
6.00165e-05
6.00155e-05
6.00152e-05
6.00145e-05
6.00144e-05
6.00144e-05
6.00142e-05
6.00144e-05
6.00145e-05
6.00147e-05
6.00148e-05
6.00147e-05
6.00148e-05
6.00149e-05
6.00147e-05
6.00144e-05
6.00148e-05
6.00152e-05
6.00162e-05
6.00182e-05
6.00217e-05
6.00263e-05
6.0032e-05
6.00386e-05
6.00459e-05
6.00538e-05
6.00611e-05
6.00672e-05
6.00727e-05
6.00763e-05
6.00753e-05
6.00693e-05
6.01014e-05
6.01273e-05
6.01296e-05
6.00929e-05
6.01062e-05
6.03968e-05
6.09872e-05
6.20077e-05
6.35815e-05
6.58349e-05
6.90328e-05
7.38797e-05
8.2069e-05
0.000125926
0.000658496
0.00144652
0.00182141
6.00281e-05
6.00161e-05
6.00189e-05
6.0017e-05
6.00159e-05
6.00157e-05
6.00149e-05
6.00149e-05
6.00149e-05
6.00147e-05
6.00148e-05
6.0015e-05
6.00151e-05
6.00153e-05
6.00153e-05
6.00153e-05
6.00155e-05
6.00154e-05
6.0015e-05
6.00153e-05
6.00158e-05
6.00165e-05
6.0018e-05
6.00208e-05
6.00253e-05
6.00307e-05
6.00371e-05
6.00443e-05
6.00522e-05
6.00597e-05
6.00657e-05
6.00705e-05
6.00742e-05
6.00743e-05
6.0067e-05
6.00971e-05
6.01306e-05
6.01424e-05
6.01207e-05
6.00741e-05
6.0272e-05
6.07446e-05
6.16286e-05
6.30804e-05
6.5234e-05
6.82348e-05
7.25095e-05
7.9299e-05
0.000106106
0.00050992
0.00137028
0.00183296
0.00198983
6.00289e-05
6.00167e-05
6.00192e-05
6.00174e-05
6.00164e-05
6.00161e-05
6.00155e-05
6.00154e-05
6.00153e-05
6.00152e-05
6.00152e-05
6.00155e-05
6.00156e-05
6.00158e-05
6.00158e-05
6.00158e-05
6.0016e-05
6.00159e-05
6.00156e-05
6.00156e-05
6.00162e-05
6.00169e-05
6.00181e-05
6.00202e-05
6.00243e-05
6.00293e-05
6.00356e-05
6.00428e-05
6.00506e-05
6.00584e-05
6.00646e-05
6.00692e-05
6.00724e-05
6.00731e-05
6.00666e-05
6.009e-05
6.01276e-05
6.01494e-05
6.01412e-05
6.00818e-05
6.0189e-05
6.05593e-05
6.12921e-05
6.25701e-05
6.45741e-05
6.7444e-05
7.14121e-05
7.72684e-05
9.49221e-05
0.000394031
0.00127587
0.00181557
0.00205603
0.00205495
6.00302e-05
6.00173e-05
6.00197e-05
6.00177e-05
6.0017e-05
6.00165e-05
6.00161e-05
6.00158e-05
6.00158e-05
6.00158e-05
6.00157e-05
6.0016e-05
6.00161e-05
6.00163e-05
6.00164e-05
6.00163e-05
6.00164e-05
6.00164e-05
6.00161e-05
6.00159e-05
6.00165e-05
6.00172e-05
6.00183e-05
6.00199e-05
6.00234e-05
6.00282e-05
6.00342e-05
6.00413e-05
6.0049e-05
6.0057e-05
6.00639e-05
6.00685e-05
6.00714e-05
6.00724e-05
6.00681e-05
6.00825e-05
6.01205e-05
6.01504e-05
6.01519e-05
6.01089e-05
6.01339e-05
6.04254e-05
6.10252e-05
6.21143e-05
6.39066e-05
6.65954e-05
7.0365e-05
7.56853e-05
8.82048e-05
0.000307804
0.00117889
0.00179253
0.00207795
0.00215888
0.00204346
6.00319e-05
6.0018e-05
6.00204e-05
6.00182e-05
6.00177e-05
6.0017e-05
6.00167e-05
6.00163e-05
6.00163e-05
6.00164e-05
6.00163e-05
6.00165e-05
6.00167e-05
6.00168e-05
6.00169e-05
6.00168e-05
6.00168e-05
6.00167e-05
6.00167e-05
6.00162e-05
6.00166e-05
6.00174e-05
6.00185e-05
6.00201e-05
6.00228e-05
6.00271e-05
6.00329e-05
6.00397e-05
6.00473e-05
6.00554e-05
6.0063e-05
6.00684e-05
6.00714e-05
6.00725e-05
6.00701e-05
6.00762e-05
6.0112e-05
6.01471e-05
6.01565e-05
6.01325e-05
6.01003e-05
6.03248e-05
6.08187e-05
6.17421e-05
6.3305e-05
6.57434e-05
6.92776e-05
7.42532e-05
8.37223e-05
0.000241011
0.00108334
0.00176882
0.00209971
0.0022086
0.00217218
0.00197664
6.00336e-05
6.00189e-05
6.00213e-05
6.00188e-05
6.00185e-05
6.00175e-05
6.00174e-05
6.00169e-05
6.00169e-05
6.0017e-05
6.00169e-05
6.0017e-05
6.00173e-05
6.00174e-05
6.00175e-05
6.00174e-05
6.00173e-05
6.00172e-05
6.00172e-05
6.00166e-05
6.00166e-05
6.00175e-05
6.00188e-05
6.00204e-05
6.00226e-05
6.00263e-05
6.00316e-05
6.00382e-05
6.00456e-05
6.00536e-05
6.00617e-05
6.00683e-05
6.00721e-05
6.00735e-05
6.00719e-05
6.00714e-05
6.01032e-05
6.01409e-05
6.0158e-05
6.01456e-05
6.00907e-05
6.02461e-05
6.06516e-05
6.14398e-05
6.2801e-05
6.49697e-05
6.82021e-05
7.28325e-05
8.04889e-05
0.000185375
0.00097984
0.00174864
0.00211828
0.00226252
0.00224101
0.00212008
0.00187166
6.0035e-05
6.00196e-05
6.00223e-05
6.00196e-05
6.00193e-05
6.00182e-05
6.00179e-05
6.00175e-05
6.00175e-05
6.00176e-05
6.00176e-05
6.00176e-05
6.00178e-05
6.0018e-05
6.00181e-05
6.00181e-05
6.00179e-05
6.0018e-05
6.00179e-05
6.00175e-05
6.0017e-05
6.00177e-05
6.0019e-05
6.00207e-05
6.00227e-05
6.00258e-05
6.00305e-05
6.00368e-05
6.0044e-05
6.00517e-05
6.00601e-05
6.00677e-05
6.00728e-05
6.0075e-05
6.00737e-05
6.00689e-05
6.00945e-05
6.01324e-05
6.01572e-05
6.01514e-05
6.01033e-05
6.01879e-05
6.05133e-05
6.11825e-05
6.23762e-05
6.43078e-05
6.72248e-05
7.1461e-05
7.79764e-05
0.000140977
0.000852792
0.0017249
0.00213997
0.00231152
0.00231784
0.00220115
0.002022
0.00174245
6.00362e-05
6.00203e-05
6.00233e-05
6.00205e-05
6.002e-05
6.00189e-05
6.00186e-05
6.00182e-05
6.00181e-05
6.00182e-05
6.00183e-05
6.00182e-05
6.00185e-05
6.00187e-05
6.00188e-05
6.00189e-05
6.00188e-05
6.00188e-05
6.00188e-05
6.00186e-05
6.00177e-05
6.00179e-05
6.00192e-05
6.00209e-05
6.0023e-05
6.00256e-05
6.00296e-05
6.00354e-05
6.00425e-05
6.00501e-05
6.00583e-05
6.00664e-05
6.00729e-05
6.00764e-05
6.0076e-05
6.00694e-05
6.00862e-05
6.01223e-05
6.01534e-05
6.01536e-05
6.01236e-05
6.015e-05
6.04053e-05
6.09605e-05
6.20014e-05
6.37341e-05
6.63787e-05
7.02257e-05
7.59349e-05
0.000110394
0.000698538
0.00168313
0.00216285
0.00236249
0.00238899
0.00229347
0.00210985
0.00189377
0.00160038
6.00377e-05
6.0021e-05
6.00241e-05
6.00213e-05
6.00207e-05
6.00198e-05
6.00192e-05
6.0019e-05
6.00186e-05
6.00189e-05
6.0019e-05
6.0019e-05
6.00191e-05
6.00194e-05
6.00195e-05
6.00197e-05
6.00197e-05
6.00198e-05
6.00197e-05
6.00197e-05
6.00188e-05
6.00184e-05
6.00195e-05
6.00209e-05
6.00232e-05
6.00258e-05
6.00291e-05
6.00342e-05
6.0041e-05
6.00486e-05
6.00565e-05
6.00646e-05
6.0072e-05
6.00771e-05
6.00785e-05
6.00731e-05
6.00793e-05
6.01114e-05
6.01463e-05
6.01537e-05
6.01357e-05
6.01279e-05
6.0329e-05
6.07796e-05
6.16683e-05
6.32144e-05
6.56317e-05
6.91561e-05
7.4252e-05
9.28048e-05
0.00053271
0.00160951
0.00217909
0.00241668
0.00246086
0.00238029
0.00221156
0.00198413
0.00174835
0.00145499
6.00396e-05
6.00218e-05
6.00248e-05
6.00221e-05
6.00213e-05
6.00206e-05
6.00198e-05
6.00198e-05
6.00194e-05
6.00195e-05
6.00197e-05
6.00198e-05
6.00198e-05
6.00201e-05
6.00202e-05
6.00205e-05
6.00206e-05
6.00207e-05
6.00207e-05
6.00208e-05
6.00202e-05
6.00192e-05
6.00197e-05
6.0021e-05
6.00231e-05
6.0026e-05
6.0029e-05
6.00333e-05
6.00395e-05
6.00471e-05
6.00548e-05
6.00627e-05
6.00704e-05
6.00767e-05
6.00805e-05
6.00784e-05
6.00756e-05
6.0101e-05
6.01361e-05
6.01519e-05
6.0137e-05
6.0115e-05
6.02777e-05
6.06442e-05
6.13876e-05
6.27413e-05
6.4942e-05
6.82066e-05
7.2856e-05
8.38546e-05
0.00038064
0.00149653
0.00217955
0.00247107
0.00253614
0.00246696
0.00230868
0.00209021
0.00183798
0.0015966
0.00131457
6.00416e-05
6.00227e-05
6.00254e-05
6.00228e-05
6.00219e-05
6.00214e-05
6.00205e-05
6.00205e-05
6.00201e-05
6.00203e-05
6.00204e-05
6.00207e-05
6.00206e-05
6.00208e-05
6.0021e-05
6.00213e-05
6.00214e-05
6.00214e-05
6.00215e-05
6.00217e-05
6.00216e-05
6.00204e-05
6.00202e-05
6.00213e-05
6.0023e-05
6.0026e-05
6.00291e-05
6.00328e-05
6.00382e-05
6.00453e-05
6.00532e-05
6.0061e-05
6.00686e-05
6.00755e-05
6.00813e-05
6.00828e-05
6.00758e-05
6.00922e-05
6.01246e-05
6.01478e-05
6.01337e-05
6.01079e-05
6.02397e-05
6.05467e-05
6.11681e-05
6.23315e-05
6.43009e-05
6.73207e-05
7.16445e-05
7.93377e-05
0.000260308
0.00134389
0.00215937
0.00251934
0.00261536
0.00255612
0.00240535
0.00219303
0.00194445
0.00168322
0.00144804
0.00118693
6.00433e-05
6.00235e-05
6.00263e-05
6.00235e-05
6.00225e-05
6.00221e-05
6.00212e-05
6.00213e-05
6.0021e-05
6.0021e-05
6.00212e-05
6.00214e-05
6.00215e-05
6.00216e-05
6.00218e-05
6.0022e-05
6.00221e-05
6.0022e-05
6.00221e-05
6.00223e-05
6.00226e-05
6.00218e-05
6.00209e-05
6.00218e-05
6.00231e-05
6.00258e-05
6.00291e-05
6.00326e-05
6.00371e-05
6.00436e-05
6.00514e-05
6.00595e-05
6.00671e-05
6.00741e-05
6.00807e-05
6.00851e-05
6.00798e-05
6.00858e-05
6.01135e-05
6.01412e-05
6.01319e-05
6.01057e-05
6.02066e-05
6.0472e-05
6.1002e-05
6.19985e-05
6.37306e-05
6.64828e-05
7.05207e-05
7.67348e-05
0.0001768
0.00115521
0.00211823
0.00255617
0.00269524
0.00265053
0.0025034
0.00229574
0.00204913
0.00178709
0.00153019
0.00131164
0.00108007
6.00443e-05
6.0024e-05
6.00274e-05
6.00242e-05
6.00232e-05
6.00227e-05
6.0022e-05
6.0022e-05
6.00219e-05
6.00218e-05
6.0022e-05
6.00223e-05
6.00223e-05
6.00225e-05
6.00227e-05
6.00228e-05
6.00228e-05
6.00226e-05
6.00227e-05
6.00227e-05
6.00234e-05
6.00232e-05
6.00219e-05
6.00224e-05
6.00236e-05
6.00257e-05
6.0029e-05
6.00325e-05
6.00366e-05
6.00421e-05
6.00496e-05
6.00579e-05
6.00658e-05
6.00729e-05
6.00793e-05
6.00853e-05
6.0085e-05
6.00826e-05
6.01039e-05
6.01323e-05
6.01327e-05
6.01063e-05
6.01768e-05
6.04075e-05
6.08698e-05
6.17351e-05
6.32513e-05
6.57184e-05
6.94461e-05
7.49134e-05
0.000125299
0.000939672
0.00205497
0.00257929
0.00277098
0.00274969
0.00260635
0.002399
0.00215448
0.00189056
0.00162943
0.00138866
0.00119656
0.00100233
6.00451e-05
6.00245e-05
6.00285e-05
6.0025e-05
6.00239e-05
6.00234e-05
6.00228e-05
6.00226e-05
6.00228e-05
6.00226e-05
6.00229e-05
6.00231e-05
6.00234e-05
6.00233e-05
6.00236e-05
6.00236e-05
6.00237e-05
6.00235e-05
6.00233e-05
6.00233e-05
6.00238e-05
6.00243e-05
6.00233e-05
6.00233e-05
6.00243e-05
6.00258e-05
6.00288e-05
6.00324e-05
6.00363e-05
6.00412e-05
6.00479e-05
6.00561e-05
6.00644e-05
6.00718e-05
6.00779e-05
6.00842e-05
6.00883e-05
6.0083e-05
6.00963e-05
6.01223e-05
6.01336e-05
6.0107e-05
6.01528e-05
6.03499e-05
6.07551e-05
6.15185e-05
6.28578e-05
6.5055e-05
6.84426e-05
7.34058e-05
9.74471e-05
0.000712691
0.00196364
0.00258773
0.00283911
0.00285042
0.00271585
0.00250611
0.00226008
0.00199569
0.00172946
0.0014822
0.00126863
0.00111246
0.00096126
6.00464e-05
6.0025e-05
6.00294e-05
6.00259e-05
6.00248e-05
6.0024e-05
6.00236e-05
6.00233e-05
6.00236e-05
6.00235e-05
6.00237e-05
6.0024e-05
6.00244e-05
6.00245e-05
6.00244e-05
6.00247e-05
6.00248e-05
6.00246e-05
6.00243e-05
6.00241e-05
6.00243e-05
6.0025e-05
6.00248e-05
6.00242e-05
6.00251e-05
6.00262e-05
6.00288e-05
6.00322e-05
6.00362e-05
6.00407e-05
6.00465e-05
6.0054e-05
6.00626e-05
6.00706e-05
6.00769e-05
6.00829e-05
6.0089e-05
6.00864e-05
6.00907e-05
6.01127e-05
6.01314e-05
6.01078e-05
6.01363e-05
6.03016e-05
6.06524e-05
6.13282e-05
6.25251e-05
6.44923e-05
6.75447e-05
7.20597e-05
8.42428e-05
0.000497684
0.00183202
0.0025796
0.00289799
0.00294897
0.00283074
0.00261991
0.00236847
0.00210131
0.00183218
0.00157748
0.00135643
0.0011806
0.0010682
0.000959701
6.00488e-05
6.00259e-05
6.00301e-05
6.00267e-05
6.00256e-05
6.00247e-05
6.00245e-05
6.00241e-05
6.00243e-05
6.00244e-05
6.00246e-05
6.0025e-05
6.00253e-05
6.00255e-05
6.00256e-05
6.00257e-05
6.00261e-05
6.0026e-05
6.00256e-05
6.00253e-05
6.0025e-05
6.00255e-05
6.00261e-05
6.00253e-05
6.00258e-05
6.00269e-05
6.0029e-05
6.00321e-05
6.0036e-05
6.00405e-05
6.00455e-05
6.0052e-05
6.00603e-05
6.0069e-05
6.00763e-05
6.00822e-05
6.00885e-05
6.00906e-05
6.00879e-05
6.01044e-05
6.01252e-05
6.01086e-05
6.01262e-05
6.02647e-05
6.05642e-05
6.11565e-05
6.2228e-05
6.4004e-05
6.67594e-05
7.08503e-05
7.84048e-05
0.000319846
0.00164618
0.00255057
0.00294664
0.00304292
0.00294799
0.00274103
0.00248271
0.00220899
0.00193601
0.00167638
0.00144663
0.00126371
0.00113428
0.00106742
0.000997036
6.00524e-05
6.00273e-05
6.0031e-05
6.00274e-05
6.00264e-05
6.00254e-05
6.00252e-05
6.00248e-05
6.0025e-05
6.00254e-05
6.00255e-05
6.0026e-05
6.00263e-05
6.00267e-05
6.00268e-05
6.0027e-05
6.00272e-05
6.00276e-05
6.00272e-05
6.00268e-05
6.00263e-05
6.00263e-05
6.00271e-05
6.00265e-05
6.00266e-05
6.00277e-05
6.00296e-05
6.00323e-05
6.00359e-05
6.00403e-05
6.0045e-05
6.00506e-05
6.0058e-05
6.00668e-05
6.00753e-05
6.00819e-05
6.0088e-05
6.00927e-05
6.00888e-05
6.00979e-05
6.01166e-05
6.01092e-05
6.012e-05
6.02375e-05
6.04929e-05
6.10056e-05
6.19557e-05
6.35601e-05
6.60614e-05
6.9773e-05
7.55603e-05
0.000195654
0.00139813
0.00249472
0.00298282
0.00313122
0.00306482
0.00286781
0.00260474
0.00232145
0.00204166
0.00177723
0.00154123
0.00134964
0.00121487
0.00113391
0.00110917
0.0010713
6.00562e-05
6.00291e-05
6.00324e-05
6.00282e-05
6.0027e-05
6.00261e-05
6.00259e-05
6.00257e-05
6.00257e-05
6.00262e-05
6.00264e-05
6.00269e-05
6.00273e-05
6.00278e-05
6.0028e-05
6.00283e-05
6.00286e-05
6.00288e-05
6.00288e-05
6.00284e-05
6.00279e-05
6.00275e-05
6.0028e-05
6.0028e-05
6.00278e-05
6.00286e-05
6.00302e-05
6.00327e-05
6.0036e-05
6.004e-05
6.00447e-05
6.00498e-05
6.00561e-05
6.00644e-05
6.00736e-05
6.00814e-05
6.00876e-05
6.0093e-05
6.00922e-05
6.00937e-05
6.01084e-05
6.01091e-05
6.01163e-05
6.02166e-05
6.04366e-05
6.08786e-05
6.17103e-05
6.31458e-05
6.54162e-05
6.87996e-05
7.37933e-05
0.000124777
0.00109739
0.00240419
0.00300254
0.00321265
0.0031797
0.00299775
0.00273433
0.00244117
0.00215117
0.00188009
0.00163866
0.00144051
0.00129843
0.00121487
0.00117829
0.00119056
0.00117595
6.00592e-05
6.00308e-05
6.00343e-05
6.00293e-05
6.00277e-05
6.00268e-05
6.00265e-05
6.00265e-05
6.00265e-05
6.0027e-05
6.00273e-05
6.00278e-05
6.00284e-05
6.00289e-05
6.00293e-05
6.00296e-05
6.00298e-05
6.00303e-05
6.00301e-05
6.003e-05
6.00297e-05
6.00292e-05
6.00292e-05
6.00295e-05
6.00293e-05
6.00297e-05
6.00309e-05
6.00333e-05
6.00363e-05
6.004e-05
6.00445e-05
6.00495e-05
6.0055e-05
6.00621e-05
6.00709e-05
6.00798e-05
6.00869e-05
6.00926e-05
6.00952e-05
6.00926e-05
6.01023e-05
6.01081e-05
6.01146e-05
6.0199e-05
6.03904e-05
6.07734e-05
6.14963e-05
6.27633e-05
6.4805e-05
6.78902e-05
7.24164e-05
9.26375e-05
0.000778144
0.00226733
0.00300006
0.00328478
0.00329173
0.00312895
0.00286981
0.00256911
0.00226698
0.00198627
0.00173862