/*--------------------------------*- C++ -*----------------------------------*\
  =========                 |
  \\      /  F ield         | OpenFOAM: The Open Source CFD Toolbox
   \\    /   O peration     | Website:  https://openfoam.org
    \\  /    A nd           | Version:  dev
     \\/     M anipulation  |
\*---------------------------------------------------------------------------*/
FoamFile
{
    version     2.0;
    format      ascii;
    class       surfaceScalarField;
    location    "125";
    object      phi;
}
// * * * * * * * * * * * * * * * * * * * * * * * * * * * * * * * * * * * * * //

dimensions      [0 3 -1 0 0 0 0];

internalField   nonuniform List<scalar> 
58294
(
-0.473325
-8.58168e-05
-0.473309
-7.49309e-05
-0.429982
-9.06458e-05
-0.473297
-6.68948e-05
-0.429976
-8.15132e-05
-0.390119
-0.000101248
-0.473286
-5.97787e-05
-0.429969
-7.412e-05
-0.39011
-9.01497e-05
-0.354176
-0.000105244
-0.473275
-5.32614e-05
-0.429961
-6.69895e-05
-0.390103
-8.17766e-05
-0.354171
-9.50126e-05
-0.32139
-0.000110386
-0.473264
-4.72072e-05
-0.429954
-6.05405e-05
-0.390095
-7.44249e-05
-0.354166
-8.69043e-05
-0.321386
-9.94149e-05
-0.291674
-0.000112027
-0.473254
-4.15704e-05
-0.429947
-5.46331e-05
-0.390088
-6.78991e-05
-0.354161
-7.96129e-05
-0.321382
-9.09869e-05
-0.291672
-0.000101585
-0.26468
-0.000113665
-0.473243
-3.63309e-05
-0.429939
-4.92238e-05
-0.390081
-6.20263e-05
-0.354155
-7.32122e-05
-0.321378
-8.37133e-05
-0.291669
-9.33202e-05
-0.264679
-0.000102976
-0.240182
-0.000113324
-0.473233
-3.14602e-05
-0.429931
-4.4256e-05
-0.390073
-5.6694e-05
-0.35415
-6.74961e-05
-0.321373
-7.73535e-05
-0.291667
-8.61182e-05
-0.264677
-9.46465e-05
-0.240182
-0.000103026
-0.217941
-0.000112764
-0.473224
-2.69383e-05
-0.429923
-3.96844e-05
-0.390065
-5.18448e-05
-0.354144
-6.2382e-05
-0.321369
-7.17363e-05
-0.291664
-7.98438e-05
-0.264676
-8.75152e-05
-0.240182
-9.48507e-05
-0.217941
-0.000102425
-0.197756
-0.000111091
-0.473214
-2.27448e-05
-0.429914
-3.54722e-05
-0.390058
-4.74031e-05
-0.354138
-5.77629e-05
-0.321365
-6.67022e-05
-0.291662
-7.42797e-05
-0.264674
-8.12868e-05
-0.240182
-8.7797e-05
-0.217942
-9.43023e-05
-0.197757
-0.000101018
-0.179438
-0.000109173
-0.473206
-1.88604e-05
-0.429906
-3.15836e-05
-0.39005
-4.33336e-05
-0.354132
-5.35882e-05
-0.32136
-6.22152e-05
-0.291659
-6.93321e-05
-0.264673
-7.57597e-05
-0.240181
-8.16107e-05
-0.217942
-8.73424e-05
-0.197758
-9.30537e-05
-0.17944
-9.9138e-05
-0.162812
-0.000106665
-0.473197
-1.52745e-05
-0.429896
-2.79947e-05
-0.390042
-3.95809e-05
-0.354125
-4.97902e-05
-0.321356
-5.81646e-05
-0.291657
-6.48829e-05
-0.264672
-7.07776e-05
-0.240181
-7.60635e-05
-0.217943
-8.11933e-05
-0.197759
-8.61997e-05
-0.179442
-9.12895e-05
-0.162814
-9.67909e-05
-0.147727
-0.000103933
-0.473189
-1.19705e-05
-0.429887
-2.46783e-05
-0.390034
-3.6118e-05
-0.354119
-4.63248e-05
-0.321351
-5.45314e-05
-0.291654
-6.09135e-05
-0.26467
-6.63143e-05
-0.240181
-7.10435e-05
-0.217943
-7.56397e-05
-0.19776
-8.01116e-05
-0.179443
-8.45664e-05
-0.162817
-8.90895e-05
-0.14773
-9.41284e-05
-0.134039
-0.000100919
-0.473182
-8.94442e-06
-0.429878
-2.16181e-05
-0.390025
-3.29055e-05
-0.354112
-4.31408e-05
-0.321346
-5.1235e-05
-0.291651
-5.73416e-05
-0.264669
-6.22703e-05
-0.24018
-6.64456e-05
-0.217944
-7.05069e-05
-0.197762
-7.45262e-05
-0.179445
-7.85438e-05
-0.162819
-8.25045e-05
-0.147732
-8.6575e-05
-0.134042
-9.12228e-05
-0.121616
-9.77653e-05
-0.473176
-6.18456e-06
-0.429868
-1.87966e-05
-0.390017
-2.99195e-05
-0.354104
-4.02005e-05
-0.321341
-4.82479e-05
-0.291648
-5.41507e-05
-0.264667
-5.86606e-05
-0.24018
-6.22673e-05
-0.217945
-6.57655e-05
-0.197763
-6.93203e-05
-0.179446
-7.29889e-05
-0.162821
-7.66013e-05
-0.147735
-8.0152e-05
-0.134045
-8.38029e-05
-0.121619
-8.81336e-05
-0.110346
-9.4511e-05
-0.47317
-3.6861e-06
-0.429858
-1.62024e-05
-0.390009
-2.71385e-05
-0.354097
-3.74617e-05
-0.321336
-4.55085e-05
-0.291645
-5.12757e-05
-0.264666
-5.54192e-05
-0.240181
-5.84735e-05
-0.217945
-6.1354e-05
-0.197764
-6.43768e-05
-0.179448
-6.76795e-05
-0.162822
-7.10654e-05
-0.147737
-7.43547e-05
-0.134048
-7.75488e-05
-0.121622
-8.08793e-05
-0.110349
-8.49687e-05
-0.10012
-9.12402e-05
-0.473165
-1.44085e-06
-0.429848
-1.3823e-05
-0.39
-2.45429e-05
-0.354089
-3.48988e-05
-0.32133
-4.29782e-05
-0.291642
-4.86866e-05
-0.264665
-5.25422e-05
-0.240181
-5.50634e-05
-0.217947
-5.72824e-05
-0.197766
-5.96967e-05
-0.17945
-6.25841e-05
-0.162824
-6.57479e-05
-0.147739
-6.89252e-05
-0.13405
-7.19259e-05
-0.121625
-7.4813e-05
-0.110352
-7.78327e-05
-0.100123
-8.1731e-05
-0.0908411
-8.79659e-05
-0.47316
5.59386e-07
-0.429838
-1.16516e-05
-0.389992
-2.21211e-05
-0.354081
-3.24803e-05
-0.321324
-4.0616e-05
-0.291638
-4.63204e-05
-0.264664
-4.99743e-05
-0.240182
-5.20235e-05
-0.217948
-5.3578e-05
-0.197768
-5.52964e-05
-0.179452
-5.76261e-05
-0.162826
-6.04884e-05
-0.147741
-6.35824e-05
-0.134052
-6.65786e-05
-0.121628
-6.93366e-05
-0.110355
-7.19637e-05
-0.100126
-7.47665e-05
-0.0908443
-7.85391e-05
-0.0824228
-8.48131e-05
-0.473156
2.3224e-06
-0.429827
-9.67635e-06
-0.389984
-1.98619e-05
-0.354073
-3.01901e-05
-0.321318
-3.83831e-05
-0.291635
-4.41439e-05
-0.264662
-4.76814e-05
-0.240182
-4.93405e-05
-0.21795
-5.02341e-05
-0.19777
-5.11739e-05
-0.179454
-5.28347e-05
-0.162829
-5.52901e-05
-0.147743
-5.82729e-05
-0.134055
-6.13286e-05
-0.12163
-6.41597e-05
-0.110357
-6.6703e-05
-0.100129
-6.9101e-05
-0.0908473
-7.16808e-05
-0.0824259
-7.5348e-05
-0.0747777
-8.16689e-05
-0.473153
3.86032e-06
-0.429817
-7.89047e-06
-0.389975
-1.77584e-05
-0.354065
-2.80128e-05
-0.321312
-3.62547e-05
-0.291631
-4.21013e-05
-0.264661
-4.56143e-05
-0.240183
-4.69762e-05
-0.217952
-4.72762e-05
-0.197773
-4.74133e-05
-0.179457
-4.82819e-05
-0.162831
-5.01587e-05
-0.147746
-5.28737e-05
-0.134057
-5.59626e-05
-0.121632
-5.89682e-05
-0.11036
-6.16603e-05
-0.100131
-6.40231e-05
-0.0908502
-6.62283e-05
-0.0824289
-6.86567e-05
-0.0747808
-7.22834e-05
-0.0678494
-7.87697e-05
-0.473151
5.18195e-06
-0.429807
-6.28308e-06
-0.389967
-1.58026e-05
-0.354057
-2.59388e-05
-0.321306
-3.42061e-05
-0.291627
-4.01613e-05
-0.264659
-4.37206e-05
-0.240184
-4.49029e-05
-0.217954
-4.4684e-05
-0.197776
-4.4017e-05
-0.179461
-4.39827e-05
-0.162835
-4.51052e-05
-0.147748
-4.74112e-05
-0.134059
-5.04636e-05
-0.121635
-5.36817e-05
-0.110362
-5.66397e-05
-0.100134
-5.91855e-05
-0.0908529
-6.13807e-05
-0.0824318
-6.34151e-05
-0.0747837
-6.56976e-05
-0.0678524
-6.92557e-05
-0.0615561
-7.58364e-05
-0.473149
6.30377e-06
-0.429797
-4.84569e-06
-0.38996
-1.39908e-05
-0.354049
-2.39611e-05
-0.3213
-3.2225e-05
-0.291623
-3.82895e-05
-0.264657
-4.19574e-05
-0.240184
-4.30623e-05
-0.217957
-4.24497e-05
-0.19778
-4.10306e-05
-0.179465
-4.00478e-05
-0.162838
-4.02708e-05
-0.147752
-4.19615e-05
-0.134062
-4.47918e-05
-0.121637
-4.81241e-05
-0.110364
-5.14032e-05
-0.100136
-5.42936e-05
-0.0908553
-5.67171e-05
-0.0824344
-5.87794e-05
-0.0747865
-6.06691e-05
-0.0678553
-6.28415e-05
-0.061559
-6.63991e-05
-0.0558516
-7.32578e-05
-0.473147
7.23526e-06
-0.429787
-3.5682e-06
-0.389952
-1.23147e-05
-0.354041
-2.20772e-05
-0.321294
-3.02978e-05
-0.291619
-3.64631e-05
-0.264655
-4.02789e-05
-0.240185
-4.14116e-05
-0.217959
-4.05275e-05
-0.197784
-3.8454e-05
-0.179469
-3.65023e-05
-0.162843
-3.56821e-05
-0.147755
-3.65353e-05
-0.134065
-3.89338e-05
-0.121639
-4.22898e-05
-0.110367
-4.59054e-05
-0.100138
-4.92365e-05
-0.0908576
-5.2044e-05
-0.0824368
-5.43278e-05
-0.074789
-5.62642e-05
-0.0678579
-5.80209e-05
-0.0615617
-6.01085e-05
-0.0558543
-6.35881e-05
-0.0506754
-7.05603e-05
-0.473147
7.99401e-06
-0.429778
-2.44034e-06
-0.389945
-1.07745e-05
-0.354033
-2.02823e-05
-0.321287
-2.84241e-05
-0.291615
-3.46648e-05
-0.264653
-3.86546e-05
-0.240185
-3.9896e-05
-0.217962
-3.88776e-05
-0.197788
-3.62752e-05
-0.179474
-3.34129e-05
-0.162848
-3.14777e-05
-0.14776
-3.1317e-05
-0.134068
-3.30512e-05
-0.121642
-3.62205e-05
-0.110369
-4.00492e-05
-0.100141
-4.38056e-05
-0.0908597
-4.71175e-05
-0.082439
-4.98316e-05
-0.0747913
-5.20066e-05
-0.0678603
-5.38489e-05
-0.0615643
-5.54847e-05
-0.0558569
-5.74776e-05
-0.050678
-6.09676e-05
-0.045976
-6.8296e-05
-0.473146
8.59324e-06
-0.429768
-1.45127e-06
-0.389938
-9.35967e-06
-0.354025
-1.85822e-05
-0.321281
-2.65957e-05
-0.29161
-3.28858e-05
-0.264651
-3.70512e-05
-0.240185
-3.84711e-05
-0.217964
-3.74435e-05
-0.197792
-3.44656e-05
-0.17948
-3.0786e-05
-0.162853
-2.77118e-05
-0.147765
-2.63562e-05
-0.134072
-2.71604e-05
-0.121645
-2.98805e-05
-0.110371
-3.37701e-05
-0.100143
-3.79648e-05
-0.0908616
-4.18698e-05
-0.082441
-4.51451e-05
-0.0747935
-4.7739e-05
-0.0678626
-4.97822e-05
-0.0615666
-5.15327e-05
-0.0558594
-5.30564e-05
-0.0506805
-5.50192e-05
-0.0459785
-5.83832e-05
-0.0417144
-6.57985e-05
-0.473146
9.04809e-06
-0.429759
-5.91115e-07
-0.389931
-8.06808e-06
-0.354017
-1.697e-05
-0.321275
-2.48251e-05
-0.291606
-3.11183e-05
-0.264648
-3.54567e-05
-0.240185
-3.70948e-05
-0.217966
-3.61717e-05
-0.197797
-3.2975e-05
-0.179485
-2.86232e-05
-0.16286
-2.44526e-05
-0.147771
-2.18127e-05
-0.134077
-2.14738e-05
-0.121649
-2.34817e-05
-0.110374
-2.72005e-05
-0.100145
-3.17026e-05
-0.0908635
-3.61636e-05
-0.0824428
-4.00554e-05
-0.0747953
-4.32408e-05
-0.0678646
-4.5724e-05
-0.0615687
-4.76753e-05
-0.0558616
-4.93543e-05
-0.0506828
-5.07604e-05
-0.0459809
-5.26454e-05
-0.0417168
-5.59868e-05
-0.0378481
-6.37585e-05
-0.473146
9.37272e-06
-0.42975
1.51338e-07
-0.389925
-6.89353e-06
-0.35401
-1.54495e-05
-0.321268
-2.31042e-05
-0.291601
-2.9372e-05
-0.264645
-3.38494e-05
-0.240185
-3.57369e-05
-0.217968
-3.50073e-05
-0.197801
-3.17512e-05
-0.179491
-2.6896e-05
-0.162867
-2.17335e-05
-0.147777
-1.77692e-05
-0.134083
-1.60886e-05
-0.121653
-1.70643e-05
-0.110377
-2.0305e-05
-0.100147
-2.4909e-05
-0.0908652
-2.98838e-05
-0.0824444
-3.44954e-05
-0.074797
-3.84097e-05
-0.0678664
-4.14912e-05
-0.0615706
-4.38343e-05
-0.0558636
-4.5662e-05
-0.0506849
-4.72669e-05
-0.0459831
-4.85727e-05
-0.041719
-5.0478e-05
-0.0378504
-5.35936e-05
-0.0343396
-6.13725e-05
-0.473147
9.58301e-06
-0.429742
7.85907e-07
-0.389919
-5.82918e-06
-0.354003
-1.40215e-05
-0.321262
-2.14438e-05
-0.291597
-2.76413e-05
-0.264642
-3.22402e-05
-0.240184
-3.4369e-05
-0.21797
-3.39053e-05
-0.197806
-3.07255e-05
-0.179498
-2.5554e-05
-0.162874
-1.95539e-05
-0.147785
-1.43008e-05
-0.13409
-1.11477e-05
-0.121659
-1.0852e-05
-0.110381
-1.3321e-05
-0.100149
-1.7769e-05
-0.0908671
-2.31162e-05
-0.0824459
-2.8418e-05
-0.0747984
-3.30876e-05
-0.0678679
-3.68681e-05
-0.0615723
-3.98248e-05
-0.0558654
-4.20483e-05
-0.0506868
-4.37947e-05
-0.0459851
-4.53385e-05
-0.0417211
-4.65214e-05
-0.0378525
-4.83448e-05
-0.0343419
-5.13572e-05
-0.0311568
-5.94446e-05
-0.473148
9.69116e-06
-0.429733
1.32306e-06
-0.389913
-4.8692e-06
-0.353996
-1.26823e-05
-0.321257
-1.98481e-05
-0.291592
-2.59371e-05
-0.264639
-3.06142e-05
-0.240184
-3.29865e-05
-0.217972
-3.28217e-05
-0.19781
-2.98456e-05
-0.179504
-2.45391e-05
-0.162882
-1.78923e-05
-0.147793
-1.14546e-05
-0.134097
-6.78663e-06
-0.121665
-4.99594e-06
-0.110385
-6.33875e-06
-0.100152
-1.02693e-05
-0.090869
-1.5742e-05
-0.0824473
-2.16384e-05
-0.0747997
-2.71302e-05
-0.0678692
-3.17721e-05
-0.0615736
-3.54947e-05
-0.0558669
-3.83046e-05
-0.0506885
-4.03668e-05
-0.0459868
-4.19972e-05
-0.0417229
-4.34782e-05
-0.0378545
-4.45649e-05
-0.0343439
-4.6438e-05
-0.031159
-4.90811e-05
-0.0282698
-5.70637e-05
-0.473149
9.71302e-06
-0.429725
1.77205e-06
-0.389908
-4.00766e-06
-0.353989
-1.14328e-05
-0.321251
-1.8318e-05
-0.291588
-2.42695e-05
-0.264636
-2.89861e-05
-0.240183
-3.1572e-05
-0.217973
-3.17376e-05
-0.197813
-2.90439e-05
-0.17951
-2.37774e-05
-0.162889
-1.66922e-05
-0.147801
-9.23832e-06
-0.134106
-3.07795e-06
-0.121672
3.69991e-07
-0.110391
4.40495e-07
-0.100156
-2.65452e-06
-0.0908714
-7.97327e-06
-0.0824488
-1.42981e-05
-0.0748008
-2.05733e-05
-0.0678702
-2.61357e-05
-0.0615748
-3.06899e-05
-0.0558682
-3.42115e-05
-0.05069
-3.68775e-05
-0.0459884
-3.88115e-05
-0.0417246
-4.03701e-05
-0.0378562
-4.17867e-05
-0.0343458
-4.27283e-05
-0.0311609
-4.45002e-05
-0.0282721
-4.69241e-05
-0.0256505
-5.50661e-05
-0.47315
9.65575e-06
-0.429718
2.14272e-06
-0.389903
-3.2374e-06
-0.353983
-1.02715e-05
-0.321246
-1.6859e-05
-0.291583
-2.264e-05
-0.264633
-2.73622e-05
-0.240182
-3.01292e-05
-0.217974
-3.06217e-05
-0.197817
-2.82894e-05
-0.179516
-2.32017e-05
-0.162897
-1.58943e-05
-0.147811
-7.62824e-06
-0.134115
-8.04316e-08
-0.12168
5.08299e-06
-0.110397
6.80107e-06
-0.100161
4.91691e-06
-0.0908742
1.52338e-07
-0.0824504
-6.30166e-06
-0.0748018
-1.32297e-05
-0.067871
-1.97133e-05
-0.0615756
-2.52536e-05
-0.0558692
-2.96677e-05
-0.0506911
-3.30899e-05
-0.0459898
-3.55807e-05
-0.0417261
-3.73334e-05
-0.0378578
-3.87818e-05
-0.0343474
-4.01298e-05
-0.0311627
-4.09622e-05
-0.0282739
-4.27934e-05
-0.0256527
-4.46681e-05
-0.0232746
-5.25192e-05
-0.473152
9.53497e-06
-0.429711
2.44229e-06
-0.389898
-2.5528e-06
-0.353977
-9.19562e-06
-0.32124
-1.54744e-05
-0.291579
-2.10605e-05
-0.26463
-2.57485e-05
-0.24018
-2.86663e-05
-0.217975
-2.94685e-05
-0.19782
-2.75279e-05
-0.179521
-2.27471e-05
-0.162905
-1.54105e-05
-0.14782
-6.57107e-06
-0.134124
2.1887e-06
-0.121689
9.05545e-06
-0.110405
1.2612e-05
-0.100166
1.22754e-05
-0.0908776
8.42253e-06
-0.0824524
2.12716e-06
-0.0748029
-5.26387e-06
-0.0678716
-1.26114e-05
-0.0615762
-1.91746e-05
-0.0558698
-2.4617e-05
-0.0506919
-2.88575e-05
-0.0459908
-3.20464e-05
-0.0417273
-3.43779e-05
-0.0378592
-3.59934e-05
-0.0343489
-3.73741e-05
-0.0311643
-3.86332e-05
-0.0282756
-3.92847e-05
-0.0256545
-4.09684e-05
-0.0232769
-4.24565e-05
-0.021118
-5.02183e-05
-0.473153
9.35958e-06
-0.429704
2.67986e-06
-0.389894
-1.94593e-06
-0.353971
-8.20388e-06
-0.321235
-1.4165e-05
-0.291575
-1.95367e-05
-0.264627
-2.41564e-05
-0.240179
-2.71827e-05
-0.217975
-2.82762e-05
-0.197823
-2.67436e-05
-0.179526
-2.23545e-05
-0.162913
-1.51736e-05
-0.147829
-5.99484e-06
-0.134135
3.75634e-06
-0.121699
1.22231e-05
-0.110413
1.76955e-05
-0.100173
1.916e-05
-0.090882
1.66016e-05
-0.0824549
1.08805e-05
-0.0748041
3.35983e-06
-0.0678722
-4.66142e-06
-0.0615765
-1.2223e-05
-0.0558702
-1.8747e-05
-0.0506925
-2.40437e-05
-0.0459915
-2.80835e-05
-0.0417282
-3.11499e-05
-0.0378603
-3.32741e-05
-0.0343502
-3.46886e-05
-0.0311657
-3.59553e-05
-0.0282771
-3.71254e-05
-0.0256561
-3.76386e-05
-0.0232786
-3.9364e-05
-0.0211204
-4.00531e-05
-0.0191621
-4.72477e-05
-0.473155
9.13964e-06
-0.429697
2.86243e-06
-0.38989
-1.41181e-06
-0.353966
-7.28947e-06
-0.321231
-1.29344e-05
-0.291571
-1.80743e-05
-0.264624
-2.25972e-05
-0.240177
-2.5694e-05
-0.217975
-2.70404e-05
-0.197825
-2.59156e-05
-0.179531
-2.19748e-05
-0.16292
-1.50932e-05
-0.147839
-5.81158e-06
-0.134145
4.67138e-06
-0.12171
1.45591e-05
-0.110423
2.19475e-05
-0.10018
2.54303e-05
-0.0908873
2.45364e-05
-0.082458
1.97987e-05
-0.0748056
1.24594e-05
-0.0678728
3.94718e-06
-0.0615767
-4.51796e-06
-0.0558703
-1.21619e-05
-0.0506927
-1.8572e-05
-0.0459919
-2.36876e-05
-0.0417289
-2.75032e-05
-0.0378611
-3.03194e-05
-0.0343512
-3.22639e-05
-0.0311669
-3.35296e-05
-0.0282784
-3.47217e-05
-0.0256576
-3.57628e-05
-0.0232803
-3.60349e-05
-0.0211221
-3.75186e-05
-0.0191646
-3.75748e-05
-0.0173866
-4.43229e-05
-0.473157
8.88492e-06
-0.429691
2.99694e-06
-0.389886
-9.43927e-07
-0.353961
-6.45199e-06
-0.321226
-1.17766e-05
-0.291567
-1.66801e-05
-0.264621
-2.10774e-05
-0.240176
-2.42091e-05
-0.217975
-2.57715e-05
-0.197827
-2.50342e-05
-0.179536
-2.15793e-05
-0.162927
-1.51106e-05
-0.147848
-5.9319e-06
-0.134156
5.02038e-06
-0.121721
1.60916e-05
-0.110434
2.53015e-05
-0.100189
3.08971e-05
-0.0908938
3.19505e-05
-0.0824621
2.85902e-05
-0.0748077
2.18417e-05
-0.0678736
1.31788e-05
-0.0615768
4.0301e-06
-0.0558702
-4.62992e-06
-0.0506926
-1.2218e-05
-0.045992
-1.84473e-05
-0.0417291
-2.33627e-05
-0.0378616
-2.69359e-05
-0.0343519
-2.96137e-05
-0.0311679
-3.13122e-05
-0.0282795
-3.23582e-05
-0.0256588
-3.34237e-05
-0.0232817
-3.43291e-05
-0.0211238
-3.43866e-05
-0.0191664
-3.58431e-05
-0.0173893
-3.47947e-05
-0.0157755
-4.06774e-05
-0.473158
8.59874e-06
-0.429685
3.09014e-06
-0.389882
-5.36649e-07
-0.353956
-5.68683e-06
-0.321222
-1.0696e-05
-0.291564
-1.53507e-05
-0.264618
-1.96094e-05
-0.240174
-2.27393e-05
-0.217975
-2.44781e-05
-0.197829
-2.40971e-05
-0.179539
-2.11334e-05
-0.162933
-1.51619e-05
-0.147857
-6.26316e-06
-0.134167
4.89256e-06
-0.121733
1.6872e-05
-0.110445
2.7715e-05
-0.100199
3.54468e-05
-0.0909016
3.86856e-05
-0.0824672
3.70998e-05
-0.0748105
3.13806e-05
-0.0678746
2.29251e-05
-0.0615768
1.328e-05
-0.0558698
3.68076e-06
-0.0506922
-5.05214e-06
-0.0459917
-1.25185e-05
-0.0417291
-1.85387e-05
-0.0378618
-2.32383e-05
-0.0343524
-2.65409e-05
-0.0311685
-2.89546e-05
-0.0282804
-3.04479e-05
-0.0256599
-3.13395e-05
-0.0232829
-3.23029e-05
-0.0211252
-3.29914e-05
-0.0191682
-3.26933e-05
-0.0173913
-3.37695e-05
-0.0157785
-3.18175e-05
-0.0143128
-3.69291e-05
-0.47316
8.29012e-06
-0.42968
3.14594e-06
-0.389879
-1.84319e-07
-0.353952
-4.99015e-06
-0.321218
-9.68976e-06
-0.29156
-1.4094e-05
-0.264615
-1.819e-05
-0.240172
-2.12974e-05
-0.217974
-2.31702e-05
-0.19783
-2.31116e-05
-0.179543
-2.06296e-05
-0.162939
-1.52042e-05
-0.147865
-6.72879e-06
-0.134178
4.39576e-06
-0.121745
1.69912e-05
-0.110458
2.92305e-05
-0.100211
3.89971e-05
-0.0909107
4.45486e-05
-0.0824736
4.50405e-05
-0.0748141
4.07706e-05
-0.0678762
3.29264e-05
-0.061577
2.31071e-05
-0.0558694
1.27892e-05
-0.0506915
3.03967e-06
-0.0459911
-5.60306e-06
-0.0417287
-1.28694e-05
-0.0378616
-1.86404e-05
-0.0343525
-2.31131e-05
-0.0311689
-2.61266e-05
-0.028281
-2.83831e-05
-0.0256608
-2.95964e-05
-0.0232839
-3.02488e-05
-0.0211264
-3.10278e-05
-0.0191696
-3.14731e-05
-0.0173932
-3.08318e-05
-0.0157807
-3.18153e-05
-0.0143161
-2.84673e-05
-0.0129845
-3.25068e-05
-0.473162
7.97003e-06
-0.429675
3.17032e-06
-0.389876
1.18241e-07
-0.353948
-4.35857e-06
-0.321214
-8.75625e-06
-0.291557
-1.29101e-05
-0.264612
-1.68327e-05
-0.240171
-1.98842e-05
-0.217974
-2.18624e-05
-0.197831
-2.20809e-05
-0.179546
-2.00573e-05
-0.162945
-1.52002e-05
-0.147873
-7.2527e-06
-0.134188
3.62847e-06
-0.121757
1.65462e-05
-0.110471
2.98816e-05
-0.100223
4.15168e-05
-0.0909211
4.94006e-05
-0.0824812
5.22464e-05
-0.0748189
4.98406e-05
-0.0678784
4.30635e-05
-0.0615775
3.34467e-05
-0.0558689
2.26377e-05
-0.0506906
1.19362e-05
-0.0459902
2.1327e-06
-0.0417279
-6.37114e-06
-0.0378611
-1.34213e-05
-0.0343522
-1.89334e-05
-0.0311689
-2.31599e-05
-0.0282813
-2.58522e-05
-0.0256613
-2.78495e-05
-0.0232848
-2.88324e-05
-0.0211275
-2.92979e-05
-0.0191709
-2.98776e-05
-0.0173948
-2.99619e-05
-0.0157827
-2.88389e-05
-0.0143185
-2.93126e-05
-0.0129881
-2.48474e-05
-0.0117782
-2.79506e-05
-0.473163
7.63258e-06
-0.42967
3.16991e-06
-0.389873
3.75871e-07
-0.353944
-3.78584e-06
-0.321211
-7.89428e-06
-0.291554
-1.17989e-05
-0.26461
-1.55388e-05
-0.240169
-1.85148e-05
-0.217973
-2.05564e-05
-0.197832
-2.10212e-05
-0.179549
-1.9419e-05
-0.162949
-1.51325e-05
-0.14788
-7.78276e-06
-0.134198
2.68736e-06
-0.12177
1.56623e-05
-0.110484
2.9779e-05
-0.100236
4.30216e-05
-0.0909327
5.31775e-05
-0.0824903
5.85039e-05
-0.0748249
5.83078e-05
-0.0678816
5.30279e-05
-0.0615785
4.40343e-05
-0.0558685
3.3037e-05
-0.0506896
2.15792e-05
-0.045989
1.07283e-05
-0.0417269
1.07804e-06
-0.0378603
-7.19864e-06
-0.0343516
-1.3979e-05
-0.0311686
-1.91937e-05
-0.0282813
-2.31691e-05
-0.0256616
-2.55329e-05
-0.0232852
-2.7369e-05
-0.0211283
-2.80202e-05
-0.019172
-2.81694e-05
-0.0173961
-2.84329e-05
-0.0157845
-2.81397e-05
-0.0143207
-2.65597e-05
-0.0129907
-2.6908e-05
-0.0117822
-2.08731e-05
-0.0106827
-2.29315e-05
-0.473165
7.29574e-06
-0.429666
3.14417e-06
-0.389871
5.93393e-07
-0.35394
-3.26917e-06
-0.321207
-7.09707e-06
-0.291551
-1.07619e-05
-0.264607
-1.43117e-05
-0.240167
-1.71947e-05
-0.217972
-1.92701e-05
-0.197833
-1.99318e-05
-0.179551
-1.87199e-05
-0.162954
-1.49834e-05
-0.147887
-8.27132e-06
-0.134207
1.65414e-06
-0.121781
1.44416e-05
-0.110497
2.90245e-05
-0.10025
4.35648e-05
-0.0909455
5.58084e-05
-0.0825008
6.36884e-05
-0.0748324
6.59674e-05
-0.067886
6.26433e-05
-0.0615802
5.47357e-05
-0.0558684
4.393e-05
-0.0506885
3.19526e-05
-0.0459876
2.01553e-05
-0.0417255
9.34154e-06
-0.0378591
-1.45889e-07
-0.0343506
-8.19262e-06
-0.0311679
-1.47017e-05
-0.0282809
-1.96155e-05
-0.0256615
-2.3323e-05
-0.0232855
-2.53313e-05
-0.0211288
-2.69105e-05
-0.0191728
-2.72533e-05
-0.0173973
-2.7109e-05
-0.015786
-2.70311e-05
-0.0143227
-2.62423e-05
-0.0129932
-2.40919e-05
-0.011785
-2.38688e-05
-0.0106869
-1.66889e-05
-0.00968733
-1.78967e-05
-0.473167
6.95085e-06
-0.429661
3.1025e-06
-0.389868
7.74331e-07
-0.353937
-2.80632e-06
-0.321204
-6.36384e-06
-0.291549
-9.79214e-06
-0.264605
-1.3155e-05
-0.240166
-1.59287e-05
-0.217972
-1.80112e-05
-0.197833
-1.88337e-05
-0.179553
-1.79623e-05
-0.162958
-1.47548e-05
-0.147894
-8.69081e-06
-0.134216
5.99648e-07
-0.121793
1.30028e-05
-0.110511
2.77483e-05
-0.100264
4.32573e-05
-0.0909592
5.73296e-05
-0.0825127
6.76882e-05
-0.0748413
7.26462e-05
-0.0678916
7.16164e-05
-0.0615828
6.52561e-05
-0.0558687
5.50612e-05
-0.0506875
4.28725e-05
-0.045986
3.02904e-05
-0.0417237
1.84025e-05
-0.0378575
7.7556e-06
-0.0343493
-1.43809e-06
-0.0311668
-9.19741e-06
-0.0282802
-1.53831e-05
-0.0256611
-1.99589e-05
-0.0232854
-2.34091e-05
-0.021129
-2.50599e-05
-0.0191733
-2.64307e-05
-0.0173982
-2.63189e-05
-0.0157873
-2.57289e-05
-0.0143245
-2.51978e-05
-0.0129955
-2.39258e-05
-0.0117878
-2.12562e-05
-0.01069
-2.09771e-05
-0.00969173
-1.22939e-05
-0.00878247
-1.26579e-05
-0.473168
6.60743e-06
-0.429658
3.04264e-06
-0.389866
9.2379e-07
-0.353933
-2.38952e-06
-0.321201
-5.69497e-06
-0.291546
-8.89102e-06
-0.264603
-1.20627e-05
-0.240164
-1.47241e-05
-0.217971
-1.67873e-05
-0.197833
-1.77342e-05
-0.179555
-1.71611e-05
-0.162961
-1.44383e-05
-0.147899
-9.02001e-06
-0.134225
-4.23128e-07
-0.121803
1.14351e-05
-0.110524
2.60714e-05
-0.100279
4.21983e-05
-0.0909738
5.77916e-05
-0.0825258
7.0463e-05
-0.0748518
7.81532e-05
-0.0678987
7.97485e-05
-0.0615866
7.53794e-05
-0.0558697
6.62977e-05
-0.0506867
5.42744e-05
-0.0459842
4.11338e-05
-0.0417217
2.82653e-05
-0.0378556
1.64796e-05
-0.0343477
6.0927e-06
-0.0311655
-2.84457e-06
-0.0282791
-1.03259e-05
-0.0256603
-1.61964e-05
-0.0232849
-2.04469e-05
-0.0211289
-2.36153e-05
-0.0191736
-2.48581e-05
-0.0173988
-2.58994e-05
-0.0157884
-2.5336e-05
-0.014326
-2.43325e-05
-0.0129975
-2.33358e-05
-0.0117904
-2.14747e-05
-0.0106931
-1.82553e-05
-0.00969497
-1.7486e-05
-0.00878695
-7.85671e-06
-0.00796103
-7.53442e-06
-0.47317
6.26932e-06
-0.429654
2.97025e-06
-0.389864
1.04393e-06
-0.353931
-2.0193e-06
-0.321199
-5.07911e-06
-0.291544
-8.06108e-06
-0.2646
-1.10383e-05
-0.240163
-1.35755e-05
-0.21797
-1.56083e-05
-0.197833
-1.66449e-05
-0.179556
-1.63276e-05
-0.162964
-1.4048e-05
-0.147904
-9.24782e-06
-0.134232
-1.37314e-06
-0.121814
9.82624e-06
-0.110536
2.41241e-05
-0.100293
4.05393e-05
-0.0909889
5.72912e-05
-0.0825401
7.20292e-05
-0.0748637
8.24049e-05
-0.0679073
8.68255e-05
-0.0615917
8.48736e-05
-0.0558717
7.73388e-05
-0.0506863
6.59211e-05
-0.0459825
5.25265e-05
-0.0417194
3.88345e-05
-0.0378533
2.59481e-05
-0.0343456
1.43981e-05
-0.0311637
4.31841e-06
-0.0282777
-4.26269e-06
-0.0256592
-1.14151e-05
-0.0232842
-1.69242e-05
-0.0211284
-2.08194e-05
-0.0191734
-2.37127e-05
-0.0173991
-2.45088e-05
-0.015789
-2.52184e-05
-0.0143272
-2.40567e-05
-0.0129993
-2.24915e-05
-0.0117927
-2.09245e-05
-0.0106959
-1.85562e-05
-0.00969828
-1.49221e-05
-0.0087903
-1.42852e-05
-0.00796552
-3.3694e-06
-0.00721341
-2.39627e-06
-0.473171
5.93461e-06
-0.429651
2.88836e-06
-0.389862
1.13886e-06
-0.353928
-1.68852e-06
-0.321196
-4.52197e-06
-0.291542
-7.28857e-06
-0.264598
-1.00872e-05
-0.240161
-1.24894e-05
-0.217969
-1.4471e-05
-0.197833
-1.55767e-05
-0.179557
-1.54716e-05
-0.162967
-1.35891e-05
-0.147909
-9.37236e-06
-0.134239
-2.22332e-06
-0.121823
8.23822e-06
-0.110548
2.20079e-05
-0.100307
3.84103e-05
-0.0910043
5.59526e-05
-0.0825552
7.2426e-05
-0.074877
8.53536e-05
-0.0679176
9.26806e-05
-0.0615983
9.34441e-05
-0.0558748
8.7969e-05
-0.0506866
7.76377e-05
-0.045981
6.43965e-05
-0.041717
5.00963e-05
-0.0378506
3.61781e-05
-0.0343431
2.34643e-05
-0.0311616
1.2251e-05
-0.0282759
2.53189e-06
-0.0256577
-5.75103e-06
-0.023283
-1.25962e-05
-0.0211276
-1.77632e-05
-0.019173
-2.13128e-05
-0.017399
-2.3861e-05
-0.0157895
-2.4123e-05
-0.0143281
-2.43835e-05
-0.0130008
-2.26426e-05
-0.0117947
-2.05587e-05
-0.0106985
-1.84537e-05
-0.00970138
-1.55496e-05
-0.00879376
-1.15649e-05
-0.0079689
-1.0621e-05
-0.00721783
9.98799e-07
-0.00653454
2.5625e-06
-0.473173
5.60841e-06
-0.429647
2.7972e-06
-0.389861
1.21179e-06
-0.353925
-1.39535e-06
-0.321194
-4.01218e-06
-0.291539
-6.58347e-06
-0.264597
-9.1938e-06
-0.24016
-1.14732e-05
-0.217968
-1.33841e-05
-0.197833
-1.45302e-05
-0.179558
-1.46081e-05
-0.16297
-1.30743e-05
-0.147913
-9.39834e-06
-0.134246
-2.95715e-06
-0.121832
6.72223e-06
-0.11056
1.98278e-05
-0.100321
3.59522e-05
-0.0910198
5.39287e-05
-0.082571
7.1765e-05
-0.0748916
8.6978e-05
-0.0679294
9.72124e-05
-0.0616065
0.000100936
-0.0558792
9.79352e-05
-0.0506878
8.91998e-05
-0.0459798
7.65067e-05
-0.0417145
6.19165e-05
-0.0378477
4.71163e-05
-0.0343402
3.32591e-05
-0.031159
2.08751e-05
-0.0282737
1.00481e-05
-0.0256559
6.91927e-07
-0.0232816
-7.20245e-06
-0.0211265
-1.37009e-05
-0.0191722
-1.84838e-05
-0.0173986
-2.16214e-05
-0.0157895
-2.37931e-05
-0.0143287
-2.34757e-05
-0.0130018
-2.32765e-05
-0.0117965
-2.08184e-05
-0.0107009
-1.80887e-05
-0.00970428
-1.54182e-05
-0.00879705
-1.21671e-05
-0.00797244
-8.00123e-06
-0.00722119
-7.35721e-06
-0.00653886
5.33436e-06
-0.00591709
7.48998e-06
-0.473174
5.29263e-06
-0.429645
2.70027e-06
-0.389859
1.26468e-06
-0.353923
-1.13681e-06
-0.321192
-3.55012e-06
-0.291538
-5.93127e-06
-0.264595
-8.37251e-06
-0.240158
-1.05113e-05
-0.217967
-1.23581e-05
-0.197833
-1.35155e-05
-0.179559
-1.37383e-05
-0.162972
-1.25158e-05
-0.147917
-9.33113e-06
-0.134252
-3.56798e-06
-0.121841
5.31332e-06
-0.110571
1.76474e-05
-0.100335
3.32881e-05
-0.0910352
5.13597e-05
-0.0825873
7.01744e-05
-0.0749072
8.73478e-05
-0.0679428
0.000100341
-0.0616164
0.000107157
-0.0558853
0.000106956
-0.0506902
0.000100284
-0.0459793
8.86862e-05
-0.0417122
7.41915e-05
-0.0378445
5.87493e-05
-0.0343369
4.37947e-05
-0.0311559
3.01947e-05
-0.0282711
1.82285e-05
-0.0256537
7.84315e-06
-0.0232798
-1.10699e-06
-0.021125
-8.69605e-06
-0.0191711
-1.48734e-05
-0.0173979
-1.92679e-05
-0.0157893
-2.19612e-05
-0.0143289
-2.36501e-05
-0.0130027
-2.26831e-05
-0.0117979
-2.19294e-05
-0.010703
-1.87842e-05
-0.00970696
-1.55151e-05
-0.00880019
-1.2407e-05
-0.00797585
-8.83374e-06
-0.00722473
-4.57308e-06
-0.00654215
-3.75192e-06
-0.00592132
9.50269e-06
-0.00535547
1.22428e-05
-0.473175
4.98319e-06
-0.429642
2.5994e-06
-0.389858
1.30072e-06
-0.353921
-9.09031e-07
-0.32119
-3.13309e-06
-0.291536
-5.33416e-06
-0.264593
-7.60629e-06
-0.240157
-9.62131e-06
-0.217966
-1.13777e-05
-0.197833
-1.25464e-05
-0.17956
-1.28763e-05
-0.162974
-1.19199e-05
-0.14792
-9.184e-06
-0.134257
-4.05534e-06
-0.121848
4.03694e-06
-0.110581
1.55398e-05
-0.100348
3.05168e-05
-0.0910503
4.84086e-05
-0.0826037
6.78064e-05
-0.0749236
8.65583e-05
-0.0679575
0.000102064
-0.0616281
0.000111969
-0.0558929
0.000114876
-0.0506939
0.000110718
-0.0459797
0.0001007
-0.0417103
8.6756e-05
-0.0378413
7.09433e-05
-0.0343332
5.50588e-05
-0.0311524
4.02485e-05
-0.0282679
2.70767e-05
-0.0256511
1.55998e-05
-0.0232776
5.65465e-06
-0.0211232
-2.9301e-06
-0.0191696
-1.01313e-05
-0.0173968
-1.59257e-05
-0.0157887
-1.98444e-05
-0.0143288
-2.19959e-05
-0.0130031
-2.31927e-05
-0.011799
-2.15401e-05
-0.0107047
-2.01885e-05
-0.00970943
-1.62704e-05
-0.00880316
-1.24215e-05
-0.00797916
-8.92775e-06
-0.00722818
-5.27261e-06
-0.00654563
-1.06463e-06
-0.00592452
-5.55779e-07
-0.00535964
1.36801e-05
-0.00484405
1.69635e-05
-0.473177
4.68911e-06
-0.429639
2.49356e-06
-0.389856
1.32226e-06
-0.353919
-7.09633e-07
-0.321188
-2.75568e-06
-0.291534
-4.78995e-06
-0.264591
-6.89957e-06
-0.240156
-8.78542e-06
-0.217965
-1.0464e-05
-0.197833
-1.16089e-05
-0.17956
-1.20366e-05
-0.162975
-1.12998e-05
-0.147923
-8.96212e-06
-0.134262
-4.42551e-06
-0.121855
2.90267e-06
-0.110591
1.3544e-05
-0.10036
2.77364e-05
-0.091065
4.51843e-05
-0.0826201
6.48298e-05
-0.0749405
8.47437e-05
-0.0679734
0.000102438
-0.0616413
0.00011531
-0.0559024
0.000121449
-0.0506992
0.000120191
-0.0459813
0.000112234
-0.0417089
9.93279e-05
-0.0378381
8.3595e-05
-0.0343293
6.7e-05
-0.0311484
5.10406e-05
-0.0282643
3.65753e-05
-0.025648
2.39233e-05
-0.023275
1.29701e-05
-0.0211211
3.49363e-06
-0.0191679
-4.68631e-06
-0.0173954
-1.15732e-05
-0.0157877
-1.69614e-05
-0.0143284
-2.03579e-05
-0.0130033
-2.19458e-05
-0.0117997
-2.25474e-05
-0.0107062
-2.01386e-05
-0.00971149
-1.81454e-05
-0.00880595
-1.35688e-05
-0.00798235
-9.33928e-06
-0.00723158
-5.63672e-06
-0.00654906
-1.90925e-06
-0.00592793
2.23863e-06
-0.00536279
2.94855e-06
-0.00484844
1.80097e-05
-0.00437432
2.16216e-05
-0.473178
4.40246e-06
-0.429637
2.3882e-06
-0.389855
1.3302e-06
-0.353917
-5.3596e-07
-0.321186
-2.41629e-06
-0.291533
-4.29195e-06
-0.26459
-6.25068e-06
-0.240155
-8.00961e-06
-0.217965
-9.59899e-06
-0.197833
-1.07272e-05
-0.17956
-1.12096e-05
-0.162976
-1.0673e-05
-0.147926
-8.68091e-06
-0.134266
-4.68482e-06
-0.121861
1.91695e-06
-0.110599
1.16938e-05
-0.100371
2.50198e-05
-0.0910791
4.18317e-05
-0.0826363
6.1378e-05
-0.0749577
8.2075e-05
-0.0679902
0.00010155
-0.061656
0.000117162
-0.0559137
0.000126571
-0.0507062
0.000128515
-0.0459841
0.000123132
-0.0417084
0.000111771
-0.0378353
9.65337e-05
-0.0343253
7.95515e-05
-0.031144
6.25673e-05
-0.0282601
4.68283e-05
-0.0256443
3.28991e-05
-0.0232719
2.08552e-05
-0.0211186
1.04321e-05
-0.0191658
1.38e-06
-0.0173937
-6.44703e-06
-0.0157863
-1.28941e-05
-0.0143275
-1.77679e-05
-0.013003
-2.05623e-05
-0.0118001
-2.15024e-05
-0.0107072
-2.14973e-05
-0.00971337
-1.83038e-05
-0.00880837
-1.56591e-05
-0.00798542
-1.04454e-05
-0.00723491
-5.86356e-06
-0.00655247
-2.04312e-06
-0.00593129
1.56259e-06
-0.00536613
5.60578e-06
-0.00485165
6.21806e-06