/*--------------------------------*- C++ -*----------------------------------*\
  =========                 |
  \\      /  F ield         | OpenFOAM: The Open Source CFD Toolbox
   \\    /   O peration     | Website:  https://openfoam.org
    \\  /    A nd           | Version:  dev
     \\/     M anipulation  |
\*---------------------------------------------------------------------------*/
FoamFile
{
    version     2.0;
    format      ascii;
    class       volVectorField;
    location    "125";
    object      U;
}
// * * * * * * * * * * * * * * * * * * * * * * * * * * * * * * * * * * * * * //

dimensions      [0 1 -1 0 0 0 0];

internalField   nonuniform List<vector> 
29380
(
(51.0578 -0.0160398 0)
(51.0555 -0.0152193 0)
(51.1116 -0.00635559 0)
(51.0543 -0.0146521 0)
(51.1107 -0.00641603 0)
(51.1024 -0.0156109 0)
(51.0529 -0.0138668 0)
(51.1099 -0.00652133 0)
(51.1008 -0.014884 0)
(51.1243 -0.0101775 0)
(51.0518 -0.012995 0)
(51.1091 -0.00666287 0)
(51.1 -0.0144805 0)
(51.1235 -0.0101079 0)
(51.1228 -0.0157768 0)
(51.0506 -0.0120244 0)
(51.1082 -0.00679686 0)
(51.0989 -0.0140286 0)
(51.1228 -0.0101281 0)
(51.1218 -0.0152969 0)
(51.1271 -0.0121424 0)
(51.0495 -0.0109715 0)
(51.1073 -0.0069143 0)
(51.098 -0.0136047 0)
(51.1221 -0.0102049 0)
(51.1213 -0.0150997 0)
(51.1267 -0.01201 0)
(51.1264 -0.0156399 0)
(51.0484 -0.00984276 0)
(51.1064 -0.00700645 0)
(51.097 -0.0131842 0)
(51.1213 -0.0103083 0)
(51.1206 -0.0149359 0)
(51.1263 -0.0120135 0)
(51.126 -0.015321 0)
(51.1244 -0.0130436 0)
(51.0473 -0.00864295 0)
(51.1055 -0.00706579 0)
(51.096 -0.0127689 0)
(51.1205 -0.0104319 0)
(51.12 -0.0148414 0)
(51.1259 -0.0120922 0)
(51.1258 -0.0152384 0)
(51.1244 -0.012896 0)
(51.1214 -0.0151147 0)
(51.0462 -0.00737692 0)
(51.1046 -0.0070867 0)
(51.095 -0.0123543 0)
(51.1197 -0.0105649 0)
(51.1193 -0.0147969 0)
(51.1255 -0.0122247 0)
(51.1255 -0.0152218 0)
(51.1243 -0.0129075 0)
(51.1216 -0.0148721 0)
(51.1166 -0.0132883 0)
(51.0452 -0.0060485 0)
(51.1036 -0.0070616 0)
(51.094 -0.0119395 0)
(51.1189 -0.0107041 0)
(51.1186 -0.0147994 0)
(51.1251 -0.0124035 0)
(51.1252 -0.0152785 0)
(51.1243 -0.0130003 0)
(51.1217 -0.0148402 0)
(51.1171 -0.0131285 0)
(51.1114 -0.0143485 0)
(51.0442 -0.00466194 0)
(51.1025 -0.00698546 0)
(51.093 -0.0115219 0)
(51.118 -0.0108428 0)
(51.1179 -0.0148452 0)
(51.1246 -0.012622 0)
(51.125 -0.0153907 0)
(51.1242 -0.01315 0)
(51.1218 -0.0148836 0)
(51.1173 -0.013142 0)
(51.1121 -0.0141231 0)
(51.1051 -0.0130869 0)
(51.0433 -0.00322213 0)
(51.1015 -0.00685185 0)
(51.092 -0.0110994 0)
(51.1171 -0.0109791 0)
(51.1172 -0.0149328 0)
(51.1241 -0.0128784 0)
(51.1247 -0.0155542 0)
(51.1241 -0.0133432 0)
(51.1219 -0.0149857 0)
(51.1177 -0.0132383 0)
(51.1126 -0.014104 0)
(51.106 -0.0128977 0)
(51.0984 -0.0134756 0)
(51.0424 -0.00173378 0)
(51.1004 -0.00665701 0)
(51.0909 -0.0106701 0)
(51.1161 -0.0111062 0)
(51.1164 -0.0150601 0)
(51.1237 -0.0131738 0)
(51.1244 -0.0157676 0)
(51.1241 -0.0135712 0)
(51.122 -0.0151238 0)
(51.1179 -0.0133813 0)
(51.113 -0.0141649 0)
(51.1066 -0.0128977 0)
(51.0996 -0.0132339 0)
(51.0911 -0.0125821 0)
(51.0416 -0.000203002 0)
(51.0992 -0.00639713 0)
(51.0898 -0.0102309 0)
(51.1151 -0.0112215 0)
(51.1157 -0.0152254 0)
(51.1232 -0.0135092 0)
(51.1241 -0.0160334 0)
(51.124 -0.013834 0)
(51.1221 -0.0152868 0)
(51.1182 -0.0135459 0)
(51.1135 -0.0142694 0)
(51.1073 -0.0129839 0)
(51.1003 -0.0132059 0)
(51.0925 -0.0123506 0)
(51.0834 -0.0125627 0)
(51.0408 0.00136475 0)
(51.0981 -0.00607071 0)
(51.0887 -0.00978047 0)
(51.1141 -0.0113178 0)
(51.1149 -0.0154242 0)
(51.1227 -0.0138859 0)
(51.1239 -0.016356 0)
(51.124 -0.0141356 0)
(51.1222 -0.0154705 0)
(51.1185 -0.0137133 0)
(51.1139 -0.0143842 0)
(51.1079 -0.013106 0)
(51.1012 -0.0132646 0)
(51.0934 -0.012326 0)
(51.0851 -0.0122889 0)
(51.0755 -0.01189 0)
(51.0402 0.00296248 0)
(51.0969 -0.0056776 0)
(51.0876 -0.00931587 0)
(51.113 -0.0113916 0)
(51.114 -0.015652 0)
(51.1221 -0.0143035 0)
(51.1236 -0.0167396 0)
(51.124 -0.0144837 0)
(51.1224 -0.0156787 0)
(51.1188 -0.0138756 0)
(51.1143 -0.0144841 0)
(51.1085 -0.0132266 0)
(51.102 -0.0133555 0)
(51.0945 -0.0123938 0)
(51.0862 -0.0122404 0)
(51.0774 -0.0116121 0)
(51.0673 -0.0116526 0)
(51.0396 0.00458416 0)
(51.0957 -0.00521876 0)
(51.0865 -0.00883648 0)
(51.1119 -0.0114362 0)
(51.1132 -0.0159014 0)
(51.1216 -0.0147592 0)
(51.1234 -0.0171876 0)
(51.1241 -0.0148874 0)
(51.1226 -0.0159198 0)
(51.1192 -0.0140322 0)
(51.1148 -0.0145526 0)
(51.1091 -0.0133124 0)
(51.1027 -0.0134363 0)
(51.0954 -0.01249 0)
(51.0874 -0.0122878 0)
(51.0786 -0.0115587 0)
(51.0694 -0.0113421 0)
(51.0589 -0.0111119 0)
(51.039 0.00622256 0)
(51.0945 -0.00469734 0)
(51.0854 -0.0083403 0)
(51.1108 -0.0114481 0)
(51.1123 -0.0161652 0)
(51.121 -0.0152484 0)
(51.1231 -0.0177009 0)
(51.1242 -0.0153554 0)
(51.1229 -0.0162057 0)
(51.1197 -0.0141915 0)
(51.1154 -0.0145832 0)
(51.1097 -0.0133392 0)
(51.1034 -0.0134676 0)
(51.0963 -0.0125683 0)
(51.0885 -0.0123613 0)
(51.08 -0.0116073 0)
(51.0708 -0.0112698 0)
(51.0612 -0.0107907 0)
(51.0503 -0.0107763 0)
(51.0386 0.0078714 0)
(51.0933 -0.00411644 0)
(51.0843 -0.00782743 0)
(51.1096 -0.0114221 0)
(51.1113 -0.0164344 0)
(51.1204 -0.0157635 0)
(51.1228 -0.0182771 0)
(51.1243 -0.0158959 0)
(51.1233 -0.0165507 0)
(51.1202 -0.0143663 0)
(51.116 -0.0145784 0)
(51.1104 -0.0132909 0)
(51.1042 -0.0134164 0)
(51.0972 -0.0125837 0)
(51.0895 -0.012412 0)
(51.0813 -0.0116814 0)
(51.0724 -0.0113047 0)
(51.0628 -0.0107108 0)
(51.0528 -0.0104304 0)
(51.0414 -0.0103177 0)
(51.0382 0.00952383 0)
(51.0921 -0.00348176 0)
(51.0832 -0.00729694 0)
(51.1084 -0.0113557 0)
(51.1104 -0.0167005 0)
(51.1198 -0.0162961 0)
(51.1226 -0.018911 0)
(51.1244 -0.0165122 0)
(51.1238 -0.0169676 0)
(51.1209 -0.0145753 0)
(51.1167 -0.0145508 0)
(51.1112 -0.0131628 0)
(51.105 -0.0132567 0)
(51.098 -0.0124964 0)
(51.0905 -0.0123912 0)
(51.0825 -0.0117284 0)
(51.0738 -0.0113656 0)
(51.0645 -0.0107431 0)
(51.0544 -0.0103363 0)
(51.0441 -0.00995823 0)
(51.0323 -0.00995472 0)
(51.0379 0.0111738 0)
(51.0909 -0.00279774 0)
(51.0822 -0.00674951 0)
(51.1073 -0.011246 0)
(51.1094 -0.0169549 0)
(51.1191 -0.0168354 0)
(51.1223 -0.0195936 0)
(51.1246 -0.0172059 0)
(51.1243 -0.01747 0)
(51.1217 -0.0148383 0)
(51.1176 -0.014518 0)
(51.1121 -0.0129604 0)
(51.1058 -0.0129723 0)
(51.0989 -0.0122704 0)
(51.0915 -0.0122529 0)
(51.0836 -0.0116975 0)
(51.0751 -0.0113967 0)
(51.066 -0.0108046 0)
(51.0563 -0.0103593 0)
(51.0459 -0.00985718 0)
(51.0352 -0.00957417 0)
(51.0231 -0.00955471 0)
(51.0377 0.0128153 0)
(51.0897 -0.00207151 0)
(51.0811 -0.00618513 0)
(51.1061 -0.0110919 0)
(51.1084 -0.0171899 0)
(51.1184 -0.0173712 0)
(51.1219 -0.0203138 0)
(51.1247 -0.017972 0)
(51.1248 -0.0180642 0)
(51.1226 -0.0151758 0)
(51.1187 -0.014506 0)
(51.1131 -0.0127002 0)
(51.1068 -0.0125598 0)
(51.0998 -0.0118789 0)
(51.0924 -0.0119529 0)
(51.0846 -0.011539 0)
(51.0763 -0.011348 0)
(51.0675 -0.0108343 0)
(51.058 -0.0104151 0)
(51.0479 -0.00987616 0)
(51.0371 -0.00946453 0)
(51.0261 -0.00915695 0)
(51.0137 -0.00920186 0)
(51.0375 0.0144428 0)
(51.0885 -0.00130801 0)
(51.0801 -0.00560485 0)
(51.1049 -0.0108926 0)
(51.1074 -0.0173983 0)
(51.1177 -0.0178923 0)
(51.1216 -0.0210581 0)
(51.1248 -0.0188031 0)
(51.1254 -0.018756 0)
(51.1235 -0.0156073 0)
(51.1199 -0.0145412 0)
(51.1144 -0.0124062 0)
(51.108 -0.0120267 0)
(51.1009 -0.0113037 0)
(51.0934 -0.0114523 0)
(51.0856 -0.0112019 0)
(51.0774 -0.0111659 0)
(51.0688 -0.0107837 0)
(51.0595 -0.0104373 0)
(51.0497 -0.00993497 0)
(51.0392 -0.00947642 0)
(51.0281 -0.00904482 0)
(51.0169 -0.0087826 0)
(51.0042 -0.00884902 0)
(51.0374 0.0160515 0)
(51.0873 -0.000514697 0)
(51.0792 -0.0050092 0)
(51.1037 -0.0106485 0)
(51.1064 -0.0175741 0)
(51.1169 -0.018389 0)
(51.1211 -0.0218128 0)
(51.1249 -0.0196867 0)
(51.126 -0.0195409 0)
(51.1246 -0.0161457 0)
(51.1212 -0.0146537 0)
(51.1159 -0.0121125 0)
(51.1094 -0.0113942 0)
(51.1021 -0.0105412 0)
(51.0945 -0.0107208 0)
(51.0867 -0.0106373 0)
(51.0785 -0.0107944 0)
(51.07 -0.0105984 0)
(51.0609 -0.0103823 0)
(51.0513 -0.00995775 0)
(51.0411 -0.00953636 0)
(51.0304 -0.00905139 0)
(51.019 -0.00866906 0)
(51.0076 -0.0084072 0)
(50.9948 -0.00852446 0)
(51.0373 0.0176367 0)
(51.0862 0.000303498 0)
(51.0782 -0.0043994 0)
(51.1026 -0.0103607 0)
(51.1054 -0.0177125 0)
(51.1161 -0.018852 0)
(51.1207 -0.0225632 0)
(51.125 -0.0206088 0)
(51.1266 -0.0204139 0)
(51.1257 -0.0168013 0)
(51.1227 -0.0148701 0)
(51.1175 -0.0118551 0)
(51.111 -0.0106937 0)
(51.1035 -0.00960164 0)
(51.0957 -0.00973728 0)
(51.0877 -0.00980061 0)
(51.0796 -0.0101769 0)
(51.0711 -0.010219 0)
(51.0622 -0.0101938 0)
(51.0528 -0.00990698 0)
(51.0429 -0.00955665 0)
(51.0323 -0.00911855 0)
(51.0214 -0.00866877 0)
(51.0098 -0.0082975 0)
(50.9984 -0.00805685 0)
(50.9856 -0.00821117 0)
(51.0373 0.0191945 0)
(51.0851 0.0011396 0)
(51.0773 -0.00377633 0)
(51.1015 -0.0100306 0)
(51.1044 -0.0178097 0)
(51.1153 -0.0192737 0)
(51.1202 -0.023296 0)
(51.125 -0.021553 0)
(51.1271 -0.0213607 0)
(51.1269 -0.0175736 0)
(51.1244 -0.0152119 0)
(51.1194 -0.0116742 0)
(51.1129 -0.00996887 0)
(51.1052 -0.0085121 0)
(51.0971 -0.00849801 0)
(51.0889 -0.00865494 0)
(51.0806 -0.0092578 0)
(51.0722 -0.00958279 0)
(51.0634 -0.00981156 0)
(51.0542 -0.0097282 0)
(51.0445 -0.00951002 0)
(51.0342 -0.00914195 0)
(51.0234 -0.00874345 0)
(51.0123 -0.00828975 0)
(51.0007 -0.00795456 0)
(50.9893 -0.00771489 0)
(50.9767 -0.00791646 0)
(51.0373 0.0207215 0)
(51.084 0.00198917 0)
(51.0765 -0.0031411 0)
(51.1004 -0.00966042 0)
(51.1034 -0.017863 0)
(51.1145 -0.0196473 0)
(51.1197 -0.0239985 0)
(51.125 -0.0225029 0)
(51.1277 -0.0223677 0)
(51.128 -0.0184596 0)
(51.1261 -0.0156947 0)
(51.1215 -0.0116063 0)
(51.1151 -0.00926718 0)
(51.1072 -0.00731308 0)
(51.0988 -0.00701667 0)
(51.0902 -0.00717774 0)
(51.0817 -0.00798279 0)
(51.0732 -0.00862329 0)
(51.0644 -0.00916881 0)
(51.0554 -0.00935974 0)
(51.0459 -0.00934157 0)
(51.0359 -0.00910424 0)
(51.0254 -0.00876895 0)
(51.0145 -0.0083766 0)
(51.0033 -0.00793787 0)
(50.9917 -0.0076265 0)
(50.9806 -0.00739123 0)
(50.9681 -0.00763174 0)
(51.0373 0.0222148 0)
(51.083 0.0028461 0)
(51.0757 -0.00249483 0)
(51.0994 -0.00925229 0)
(51.1024 -0.0178707 0)
(51.1137 -0.0199684 0)
(51.1191 -0.02466 0)
(51.1249 -0.023442 0)
(51.1281 -0.0234149 0)
(51.1292 -0.0194461 0)
(51.1278 -0.0163246 0)
(51.1237 -0.0116831 0)
(51.1175 -0.0086407 0)
(51.1096 -0.00605853 0)
(51.1008 -0.00532666 0)
(51.0918 -0.00536517 0)
(51.0829 -0.00631064 0)
(51.0742 -0.00727278 0)
(51.0654 -0.00819258 0)
(51.0565 -0.0087329 0)
(51.0471 -0.00899048 0)
(51.0373 -0.00895454 0)
(51.0271 -0.00874076 0)
(51.0165 -0.00840826 0)
(51.0056 -0.00803798 0)
(50.9944 -0.00759889 0)
(50.9831 -0.00732253 0)
(50.9724 -0.00707453 0)
(50.9601 -0.00735906 0)
(51.0374 0.0236718 0)
(51.082 0.00370665 0)
(51.0749 -0.00183847 0)
(51.0984 -0.00880926 0)
(51.1015 -0.0178318 0)
(51.1129 -0.0202329 0)
(51.1186 -0.0252712 0)
(51.1247 -0.0243551 0)
(51.1285 -0.0244846 0)
(51.1302 -0.0205189 0)
(51.1296 -0.0171006 0)
(51.1261 -0.0119277 0)
(51.1202 -0.00813666 0)
(51.1123 -0.00480869 0)
(51.1031 -0.00347869 0)
(51.0937 -0.00323446 0)
(51.0843 -0.00421573 0)
(51.0752 -0.00547087 0)
(51.0663 -0.00680068 0)
(51.0574 -0.00776896 0)
(51.0482 -0.00838821 0)
(51.0386 -0.00863036 0)
(51.0287 -0.00861011 0)
(51.0183 -0.0083917 0)
(51.0077 -0.00807574 0)
(50.9968 -0.00771535 0)
(50.986 -0.00728269 0)
(50.975 -0.00703301 0)
(50.9647 -0.00677083 0)
(50.9526 -0.00708981 0)
(51.0375 0.0250908 0)
(51.081 0.00456579 0)
(51.0742 -0.00117316 0)
(51.0974 -0.00833359 0)
(51.1005 -0.0177464 0)
(51.1122 -0.020439 0)
(51.118 -0.025825 0)
(51.1245 -0.0252287 0)
(51.1288 -0.0255562 0)
(51.1312 -0.0216563 0)
(51.1313 -0.0180125 0)
(51.1285 -0.0123536 0)
(51.1231 -0.00780042 0)
(51.1153 -0.00362957 0)
(51.1059 -0.001537 0)
(51.0959 -0.000825797 0)
(51.0859 -0.00169514 0)
(51.0764 -0.00317092 0)
(51.0672 -0.00491757 0)
(51.0581 -0.0063766 0)
(51.049 -0.00745399 0)
(51.0396 -0.00806554 0)
(51.0299 -0.00831528 0)
(51.0199 -0.00828625 0)
(51.0096 -0.00807192 0)
(50.999 -0.00776228 0)
(50.9884 -0.00741613 0)
(50.978 -0.00697898 0)
(50.9674 -0.00676394 0)
(50.9576 -0.00646776 0)
(50.9458 -0.00682389 0)
(51.0377 0.0264699 0)
(51.0801 0.00542067 0)
(51.0735 -0.00049983 0)
(51.0965 -0.00782857 0)
(51.0997 -0.0176149 0)
(51.1114 -0.0205852 0)
(51.1174 -0.0263155 0)
(51.1243 -0.0260511 0)
(51.1291 -0.0266129 0)
(51.1322 -0.0228384 0)
(51.133 -0.0190448 0)
(51.131 -0.0129639 0)
(51.1262 -0.00766297 0)
(51.1186 -0.00258109 0)
(51.1091 0.000422491 0)
(51.0986 0.001799 0)
(51.088 0.00122963 0)
(51.0778 -0.000345327 0)
(51.0681 -0.00247533 0)
(51.0589 -0.00446603 0)
(51.0497 -0.00608687 0)
(51.0405 -0.00717869 0)
(51.031 -0.00779241 0)
(51.0212 -0.00802618 0)
(51.0112 -0.00799224 0)
(51.0009 -0.00777185 0)
(50.9907 -0.00747278 0)
(50.9805 -0.00713153 0)
(50.9705 -0.00669488 0)
(50.9606 -0.00650384 0)
(50.9514 -0.00617145 0)
(50.9395 -0.00654942 0)
(51.0378 0.0278082 0)
(51.0792 0.00626725 0)
(51.0729 0.00018048 0)
(51.0956 -0.00729659 0)
(51.0988 -0.0174383 0)
(51.1107 -0.0206715 0)
(51.1168 -0.0267393 0)
(51.1241 -0.0268128 0)
(51.1293 -0.0276366 0)
(51.133 -0.0240414 0)
(51.1346 -0.0201759 0)
(51.1335 -0.0137519 0)
(51.1293 -0.00774898 0)
(51.1222 -0.0017239 0)
(51.1127 0.00232071 0)
(51.1019 0.00456441 0)
(51.0905 0.00451178 0)
(51.0795 0.00300842 0)
(51.0692 0.000576333 0)
(51.0595 -0.00195173 0)
(51.0502 -0.00418818 0)
(51.041 -0.00586321 0)
(51.0317 -0.00696343 0)
(51.0222 -0.00755181 0)
(51.0125 -0.007769 0)
(51.0026 -0.00772225 0)
(50.9927 -0.00749618 0)
(50.9828 -0.00720032 0)
(50.9732 -0.00686686 0)
(50.9639 -0.00641793 0)
(50.9545 -0.00625886 0)
(50.9459 -0.00586604 0)
(50.9336 -0.0062633 0)
(51.038 0.0291045 0)
(51.0784 0.00710339 0)
(51.0723 0.000866798 0)
(51.0947 -0.00674079 0)
(51.098 -0.017218 0)
(51.1099 -0.0206985 0)
(51.1162 -0.0270936 0)
(51.1238 -0.0275065 0)
(51.1294 -0.028614 0)
(51.1338 -0.0252449 0)
(51.1362 -0.0213823 0)
(51.1359 -0.0147025 0)
(51.1326 -0.00806583 0)
(51.1261 -0.00109949 0)
(51.1168 0.00407923 0)
(51.1056 0.00737794 0)
(51.0935 0.00807955 0)
(51.0817 0.00686504 0)
(51.0705 0.00426729 0)
(51.0603 0.00123922 0)
(51.0507 -0.00165617 0)
(51.0414 -0.0040131 0)
(51.0322 -0.00571434 0)
(51.0229 -0.00679048 0)
(51.0135 -0.00734465 0)
(51.0039 -0.0075394 0)
(50.9944 -0.00747632 0)
(50.9849 -0.00723644 0)
(50.9756 -0.00694845 0)
(50.9667 -0.0066104 0)
(50.9581 -0.00615577 0)
(50.9493 -0.00601472 0)
(50.941 -0.00555602 0)
(50.9275 -0.00595097 0)
(51.0381 0.0303583 0)
(51.0776 0.00792608 0)
(51.0717 0.00155823 0)
(51.0939 -0.00616351 0)
(51.0972 -0.0169557 0)
(51.1092 -0.0206676 0)
(51.1156 -0.0273777 0)
(51.1234 -0.0281267 0)
(51.1294 -0.0295321 0)
(51.1344 -0.0264274 0)
(51.1376 -0.0226377 0)
(51.1382 -0.0157936 0)
(51.1358 -0.00861252 0)
(51.1301 -0.000745192 0)
(51.1212 0.00562389 0)
(51.1098 0.0101454 0)
(51.0971 0.0118438 0)
(51.0843 0.0111714 0)
(51.0722 0.00860138 0)
(51.0612 0.00516229 0)
(51.0511 0.00159865 0)
(51.0416 -0.00151491 0)
(51.0324 -0.00393815 0)
(51.0233 -0.00562191 0)
(51.0141 -0.0066565 0)
(51.0048 -0.00716816 0)
(50.9957 -0.00733625 0)
(50.9867 -0.00724873 0)
(50.9778 -0.00699752 0)
(50.9692 -0.00670693 0)
(50.9611 -0.00636921 0)
(50.9532 -0.00589333 0)
(50.9448 -0.00577593 0)
(50.9364 -0.00522354 0)
(50.9207 -0.00560907 0)
(51.0383 0.0315691 0)
(51.0768 0.00873382 0)
(51.0712 0.00225383 0)
(51.0932 -0.00556762 0)
(51.0965 -0.0166535 0)
(51.1086 -0.0205806 0)
(51.115 -0.0275915 0)
(51.1231 -0.0286696 0)
(51.1295 -0.0303818 0)
(51.135 -0.0275725 0)
(51.1389 -0.0239173 0)
(51.1404 -0.0169987 0)
(51.1391 -0.00937418 0)
(51.1342 -0.000673734 0)
(51.1258 0.00689661 0)
(51.1145 0.0127682 0)
(51.1014 0.0156961 0)
(51.0876 0.0158456 0)
(51.0744 0.0135503 0)
(51.0624 0.00985084 0)
(51.0516 0.00565668 0)
(51.0417 0.00173585 0)
(51.0324 -0.0015101 0)
(51.0233 -0.00394088 0)
(51.0144 -0.00557413 0)
(51.0054 -0.00655877 0)
(50.9966 -0.00701809 0)
(50.988 -0.00715391 0)
(50.9796 -0.00704087 0)
(50.9715 -0.00676804 0)
(50.9638 -0.00648277 0)
(50.9564 -0.00612902 0)
(50.9492 -0.00563727 0)
(50.9408 -0.00552668 0)
(50.9313 -0.00487186 0)
(50.912 -0.00522317 0)
(51.0385 0.0327367 0)
(51.0761 0.00952455 0)
(51.0707 0.00295266 0)
(51.0925 -0.00495523 0)
(51.0958 -0.0163133 0)
(51.1079 -0.0204399 0)
(51.1144 -0.027736 0)
(51.1228 -0.0291334 0)
(51.1294 -0.0311552 0)
(51.1355 -0.0286634 0)
(51.1401 -0.0251965 0)
(51.1425 -0.0182887 0)
(51.1422 -0.0103294 0)
(51.1383 -0.000892578 0)
(51.1307 0.00784888 0)
(51.1197 0.0151558 0)
(51.1062 0.0195232 0)
(51.0916 0.0207845 0)
(51.0772 0.0190547 0)
(51.064 0.0153107 0)
(51.0522 0.0105816 0)
(51.0417 0.00583773 0)
(51.0322 0.00168251 0)
(51.0231 -0.00161397 0)
(51.0143 -0.00400111 0)
(51.0055 -0.0055685 0)
(50.9971 -0.00649193 0)
(50.9889 -0.00688986 0)
(50.9809 -0.00699404 0)
(50.9733 -0.00684408 0)
(50.9661 -0.00655776 0)
(50.9593 -0.00626329 0)
(50.9528 -0.00589672 0)
(50.9458 -0.00536985 0)
(50.9365 -0.00526893 0)
(50.9249 -0.00448339 0)
(50.9002 -0.00479424 0)
(51.0387 0.0338612 0)
(51.0755 0.0102971 0)
(51.0703 0.00365395 0)
(51.0918 -0.00432894 0)
(51.0951 -0.0159375 0)
(51.1073 -0.0202477 0)
(51.1139 -0.027813 0)
(51.1224 -0.0295175 0)
(51.1293 -0.0318475 0)
(51.1359 -0.0296885 0)
(51.1411 -0.0264536 0)
(51.1445 -0.0196345 0)
(51.1452 -0.0114487 0)
(51.1424 -0.00138664 0)
(51.1358 0.00845612 0)
(51.1253 0.0172304 0)
(51.1117 0.0232056 0)
(51.0964 0.025862 0)
(51.0807 0.0250231 0)
(51.0661 0.0215123 0)
(51.0531 0.016412 0)
(51.0418 0.0108811 0)
(51.0318 0.00575408 0)
(51.0225 0.00147779 0)
(51.0138 -0.0017943 0)
(51.0053 -0.00411334 0)
(50.9971 -0.00559509 0)
(50.9893 -0.0064517 0)
(50.9818 -0.00678282 0)
(50.9747 -0.0068474 0)
(50.9681 -0.00666554 0)
(50.9618 -0.00635271 0)
(50.956 -0.00605517 0)
(50.95 -0.00565373 0)
(50.9425 -0.00509445 0)
(50.9312 -0.00498662 0)
(50.916 -0.0040645 0)
(50.8841 -0.00431222 0)
(51.0388 0.0349426 0)
(51.0748 0.0110501 0)
(51.0699 0.00435659 0)
(51.0912 -0.00369055 0)
(51.0945 -0.0155282 0)
(51.1067 -0.0200071 0)
(51.1133 -0.0278245 0)
(51.122 -0.0298223 0)
(51.1292 -0.0324551 0)
(51.1362 -0.0306372 0)
(51.142 -0.0276691 0)
(51.1462 -0.0210067 0)
(51.148 -0.0127002 0)
(51.1465 -0.00213807 0)
(51.1409 0.00870461 0)
(51.1311 0.0189305 0)
(51.1177 0.0266319 0)
(51.1018 0.030943 0)
(51.085 0.0313375 0)
(51.069 0.0283916 0)
(51.0545 0.0231565 0)
(51.042 0.0169388 0)
(51.0313 0.0108165 0)
(51.0218 0.0054561 0)
(51.013 0.00116636 0)
(51.0046 -0.00204185 0)
(50.9967 -0.00426402 0)
(50.9892 -0.00565057 0)
(50.9821 -0.006437 0)
(50.9755 -0.00668875 0)
(50.9694 -0.00672255 0)
(50.9639 -0.00649413 0)
(50.9588 -0.0061629 0)
(50.9537 -0.00583977 0)
(50.9475 -0.00540329 0)
(50.9384 -0.00479151 0)
(50.9236 -0.00468224 0)
(50.9031 -0.00359953 0)
(50.862 -0.00378858 0)
(51.039 0.0359809 0)
(51.0743 0.0117829 0)
(51.0695 0.00505986 0)
(51.0906 -0.00304255 0)
(51.0939 -0.0150879 0)
(51.1062 -0.0197206 0)
(51.1128 -0.0277732 0)
(51.1217 -0.0300491 0)
(51.1291 -0.0329767 0)
(51.1364 -0.0315029 0)
(51.1428 -0.0288272 0)
(51.1479 -0.0223793 0)
(51.1507 -0.0140491 0)
(51.1503 -0.00311282 0)
(51.146 0.00860426 0)
(51.1372 0.0202162 0)
(51.1242 0.0297046 0)
(51.108 0.0358863 0)
(51.0902 0.0378527 0)
(51.0726 0.0358476 0)
(51.0565 0.0307872 0)
(51.0426 0.0240571 0)
(51.0309 0.0169712 0)
(51.0208 0.0104504 0)
(51.0118 0.0050069 0)
(51.0035 0.000766711 0)
(50.9958 -0.00233604 0)
(50.9885 -0.00444858 0)
(50.9819 -0.00573164 0)
(50.9758 -0.00643935 0)
(50.9703 -0.00661401 0)
(50.9653 -0.00660705 0)
(50.961 -0.00633819 0)
(50.9568 -0.00596743 0)
(50.9518 -0.00561912 0)
(50.9444 -0.0051226 0)
(50.9324 -0.00446611 0)
(50.9124 -0.00433997 0)
(50.8846 -0.00309927 0)
(50.8326 -0.00321872 0)
(51.0392 0.0369772 0)
(51.0737 0.0124944 0)
(51.0691 0.00576293 0)
(51.0901 -0.00238647 0)
(51.0934 -0.014619 0)
(51.1057 -0.0193913 0)
(51.1123 -0.0276622 0)
(51.1213 -0.0302002 0)
(51.1289 -0.0334116 0)
(51.1366 -0.0322797 0)
(51.1435 -0.0299146 0)
(51.1493 -0.0237283 0)
(51.1531 -0.0154619 0)
(51.154 -0.00427795 0)
(51.151 0.00817217 0)
(51.1434 0.0210672 0)
(51.1311 0.0323437 0)
(51.1149 0.0405575 0)
(51.0963 0.0444122 0)
(51.0772 0.0437464 0)
(51.0593 0.039236 0)
(51.0436 0.0322503 0)
(51.0306 0.0243011 0)
(51.0197 0.0165856 0)
(51.0104 0.00986598 0)
(51.002 0.00443475 0)
(50.9944 0.000307787 0)
(50.9874 -0.00267145 0)
(50.9811 -0.0046626 0)
(50.9755 -0.00582984 0)
(50.9705 -0.00646416 0)
(50.9662 -0.00654658 0)
(50.9625 -0.00651087 0)
(50.9593 -0.0061785 0)
(50.9556 -0.00576994 0)
(50.9498 -0.00536814 0)
(50.9399 -0.00481677 0)
(50.9232 -0.00409754 0)
(50.896 -0.00396564 0)
(50.8589 -0.00255478 0)
(50.7943 -0.00262137 0)
(51.0394 0.0379313 0)
(51.0732 0.0131845 0)
(51.0688 0.0064646 0)
(51.0896 -0.00172424 0)
(51.0929 -0.0141236 0)
(51.1052 -0.0190222 0)
(51.1118 -0.0274945 0)
(51.121 -0.0302781 0)
(51.1287 -0.0337612 0)
(51.1367 -0.032965 0)
(51.1442 -0.0309213 0)
(51.1506 -0.0250335 0)
(51.1554 -0.0169064 0)
(51.1575 -0.00559164 0)
(51.1559 0.00744335 0)
(51.1496 0.0214845 0)
(51.1382 0.0344943 0)
(51.1224 0.044835 0)
(51.1032 0.0508494 0)
(51.0827 0.0519249 0)
(51.0629 0.0483932 0)
(51.0453 0.0414939 0)
(51.0306 0.032865 0)
(51.0185 0.0239773 0)
(51.0086 0.0158866 0)
(51.0001 0.00910701 0)
(50.9925 0.00378378 0)
(50.9857 -0.000199871 0)
(50.9797 -0.00303965 0)
(50.9745 -0.0048953 0)
(50.9701 -0.00594766 0)
(50.9664 -0.00649736 0)
(50.9634 -0.00649475 0)
(50.9611 -0.00641274 0)
(50.9586 -0.00601604 0)
(50.9544 -0.00554042 0)
(50.9465 -0.00508998 0)
(50.9324 -0.00446062 0)
(50.909 -0.00369424 0)
(50.8724 -0.00354681 0)
(50.8244 -0.00198488 0)
(50.7458 -0.00199716 0)
(51.0396 0.0388447 0)
(51.0727 0.0138522 0)
(51.0685 0.00716441 0)
(51.0891 -0.00105769 0)
(51.0924 -0.0136041 0)
(51.1047 -0.0186163 0)
(51.1114 -0.0272737 0)
(51.1206 -0.0302861 0)
(51.1285 -0.0340269 0)
(51.1368 -0.0335571 0)
(51.1447 -0.0318393 0)
(51.1518 -0.0262776 0)
(51.1575 -0.0183534 0)
(51.1608 -0.00701701 0)
(51.1605 0.00645418 0)
(51.1557 0.0214853 0)
(51.1456 0.0361238 0)
(51.1303 0.0486194 0)
(51.1109 0.0570068 0)
(51.0893 0.0602036 0)
(51.0677 0.0581099 0)
(51.0479 0.0517179 0)
(51.0312 0.0426867 0)
(51.0176 0.0327253 0)
(51.0067 0.0232106 0)
(50.9978 0.0149369 0)
(50.9902 0.00823428 0)
(50.9835 0.00307071 0)
(50.9778 -0.00074353 0)
(50.9729 -0.00342945 0)
(50.9689 -0.005148 0)
(50.9658 -0.00607022 0)
(50.9636 -0.00654624 0)
(50.9621 -0.00643846 0)
(50.9608 -0.00631424 0)
(50.9582 -0.00581973 0)
(50.9523 -0.00528275 0)
(50.9408 -0.0047565 0)
(50.9204 -0.00406386 0)
(50.888 -0.00323837 0)
(50.8401 -0.00309873 0)
(50.7795 -0.00138924 0)
(50.6853 -0.00136334 0)
(51.0397 0.0397174 0)
(51.0723 0.0144978 0)
(51.0682 0.00786075 0)
(51.0886 -0.000388297 0)
(51.092 -0.013063 0)
(51.1043 -0.0181762 0)
(51.111 -0.0270029 0)
(51.1203 -0.0302276 0)
(51.1283 -0.0342116 0)
(51.1369 -0.0340564 0)
(51.1451 -0.0326639 0)
(51.1529 -0.027447 0)
(51.1594 -0.0197775 0)
(51.1638 -0.00851369 0)
(51.165 0.00525148 0)
(51.1617 0.0211026 0)
(51.153 0.0372255 0)
(51.1387 0.051836 0)
(51.1194 0.0627331 0)
(51.097 0.0683874 0)
(51.0736 0.0682055 0)
(51.0515 0.0628049 0)
(51.0324 0.0537455 0)
(51.0169 0.0429023 0)
(51.0047 0.0319754 0)
(50.9951 0.0220868 0)
(50.9874 0.0138188 0)
(50.9808 0.00727731 0)
(50.9752 0.00231813 0)
(50.9706 -0.00130899 0)
(50.9671 -0.00383752 0)
(50.9645 -0.00540214 0)
(50.9629 -0.00620272 0)
(50.9623 -0.00659018 0)
(50.9621 -0.00637867 0)
(50.961 -0.00618189 0)
(50.9572 -0.00559202 0)
(50.9482 -0.004965 0)
(50.9309 -0.00437737 0)
(50.9019 -0.00360246 0)
(50.8583 -0.00275065 0)
(50.7972 -0.00261811 0)
(50.7223 -0.000784838 0)
(50.6108 -0.000731208 0)
(51.0399 0.0405508 0)
(51.0719 0.0151207 0)
(51.068 0.00855335 0)
(51.0882 0.000281942 0)
(51.0915 -0.0125022 0)
(51.1039 -0.0177053 0)
(51.1106 -0.0266855 0)
(51.12 -0.0301061 0)
(51.1281 -0.0343185 0)
(51.1369 -0.0344639 0)
(51.1455 -0.0333918 0)
(51.1538 -0.0285311 0)
(51.1611 -0.0211561 0)
(51.1666 -0.0100482 0)
(51.1691 0.00387846 0)
(51.1675 0.020378 0)
(51.1603 0.0378121 0)
(51.1473 0.0544385 0)
(51.1286 0.0679081 0)
(51.1056 0.0762925 0)
(51.0807 0.0784717 0)
(51.0563 0.0745899 0)
(51.0346 0.0659694 0)
(51.0168 0.0545414 0)
(51.0029 0.0422973 0)
(50.9922 0.030721 0)
(50.984 0.0207099 0)
(50.9774 0.0125778 0)
(50.9721 0.00626945 0)
(50.9677 0.00154333 0)
(50.9645 -0.00189084 0)
(50.9624 -0.0042459 0)
(50.9615 -0.00566286 0)
(50.9616 -0.00632627 0)
(50.9625 -0.00663139 0)
(50.9629 -0.00628394 0)
(50.961 -0.00601791 0)
(50.9545 -0.00530029 0)
(50.9403 -0.00459925 0)
(50.9149 -0.0039246 0)
(50.8749 -0.00310003 0)
(50.8181 -0.00222372 0)
(50.742 -0.00212381 0)
(50.651 -0.000185613 0)
(50.5199 -9.28495e-05 0)
(51.04 0.0413454 0)
(51.0715 0.0157209 0)
(51.0678 0.00924087 0)
(51.0878 0.000952022 0)
(51.0912 -0.0119247 0)
(51.1035 -0.0172061 0)
(51.1102 -0.0263252 0)
(51.1197 -0.0299253 0)
(51.1279 -0.0343511 0)
(51.1369 -0.0347823 0)
(51.1458 -0.0340221 0)
(51.1546 -0.0295222 0)
(51.1626 -0.0224717 0)
(51.1692 -0.0115869 0)
(51.173 0.00238248 0)
(51.173 0.0193615 0)
(51.1676 0.037916 0)
(51.156 0.0564089 0)
(51.1382 0.0724311 0)
(51.1151 0.0837354 0)
(51.089 0.0886897 0)
(51.0624 0.0868742 0)
(51.038 0.0792344 0)
(51.0174 0.0676279 0)
(51.0013 0.054264 0)
(50.9892 0.0409983 0)
(50.9802 0.0290966 0)
(50.9734 0.0191512 0)
(50.9682 0.011264 0)
(50.9642 0.00523499 0)
(50.9613 0.00075731 0)
(50.9596 -0.00246931 0)
(50.9592 -0.00465609 0)
(50.9601 -0.00591173 0)
(50.9619 -0.00644453 0)
(50.9637 -0.00663857 0)
(50.9637 -0.0061549 0)
(50.9596 -0.00578793 0)
(50.9486 -0.00495758 0)
(50.9268 -0.00415246 0)
(50.8907 -0.00342215 0)
(50.8374 -0.00254392 0)
(50.7653 -0.00168292 0)
(50.6724 -0.00162317 0)
(50.5631 0.000420043 0)
(50.4093 0.000508405 0)
(51.0402 0.0421017 0)
(51.0711 0.0162985 0)
(51.0675 0.00992232 0)
(51.0875 0.00162025 0)
(51.0908 -0.011332 0)
(51.1032 -0.016682 0)
(51.1098 -0.0259251 0)
(51.1194 -0.0296894 0)
(51.1277 -0.0343129 0)
(51.1369 -0.035014 0)
(51.146 -0.0345552 0)
(51.1553 -0.0304153 0)
(51.164 -0.0237095 0)
(51.1715 -0.0131036 0)
(51.1767 0.000804471 0)
(51.1782 0.0181048 0)
(51.1746 0.0375815 0)
(51.1647 0.0577547 0)
(51.1481 0.076242 0)
(51.1254 0.0905702 0)
(51.0985 0.0986384 0)
(51.0699 0.0994216 0)
(51.0427 0.0933621 0)
(51.0191 0.0820893 0)
(51.0003 0.0679201 0)
(50.9861 0.0530549 0)
(50.976 0.0391669 0)
(50.9688 0.0271975 0)
(50.9636 0.0174782 0)
(50.9599 0.00991197 0)
(50.9574 0.00419087 0)
(50.9561 -1.93034e-05 0)
(50.9561 -0.00304559 0)
(50.9576 -0.00505364 0)
(50.9604 -0.00615553 0)
(50.9634 -0.00653008 0)
(50.9652 -0.00661202 0)
(50.9635 -0.00595992 0)
(50.9554 -0.00550639 0)
(50.9375 -0.00452851 0)
(50.9054 -0.00364957 0)
(50.856 -0.00285261 0)
(50.7872 -0.00196621 0)
(50.6979 -0.00113422 0)
(50.5863 -0.00110987 0)
(50.456 0.000987552 0)
(50.275 0.00113011 0)
(51.0403 0.042823 0)
(51.0708 0.0168533 0)
(51.0673 0.0105969 0)
(51.0872 0.00228506 0)
(51.0905 -0.0107265 0)
(51.1028 -0.016135 0)
(51.1095 -0.0254891 0)
(51.1191 -0.0294021 0)
(51.1275 -0.0342085 0)
(51.1368 -0.0351628 0)
(51.1462 -0.0349925 0)
(51.1559 -0.0312079 0)
(51.1652 -0.0248587 0)
(51.1736 -0.0145736 0)
(51.18 -0.000815012 0)
(51.1831 0.0166614 0)
(51.1813 0.0368634 0)
(51.1733 0.0585056 0)
(51.1583 0.0793063 0)
(51.1364 0.0966681 0)
(51.109 0.108105 0)
(51.0788 0.111984 0)
(51.0489 0.108135 0)
(51.0221 0.0977969 0)
(51.0001 0.0832595 0)
(50.9834 0.0669953 0)
(50.9716 0.0511022 0)
(50.9636 0.0369327 0)
(50.9583 0.0251211 0)
(50.9547 0.0157461 0)
(50.9526 0.00854816 0)
(50.9517 0.0031583 0)
(50.9522 -0.000786198 0)
(50.9542 -0.00360942 0)
(50.9577 -0.00544589 0)
(50.9621 -0.00637063 0)
(50.9655 -0.00658369 0)
(50.9661 -0.00651991 0)
(50.961 -0.00571295 0)
(50.9466 -0.00513594 0)
(50.9189 -0.00403754 0)
(50.8737 -0.00306739 0)
(50.8086 -0.00225204 0)
(50.7222 -0.00136849 0)
(50.6139 -0.000578573 0)
(50.4809 -0.000621745 0)
(50.3258 0.00159167 0)
(50.1067 0.00169157 0)
(51.0405 0.0435076 0)
(51.0705 0.0173866 0)
(51.0672 0.0112631 0)
(51.0869 0.00294553 0)
(51.0902 -0.0101105 0)
(51.1025 -0.0155681 0)
(51.1092 -0.0250197 0)
(51.1189 -0.0290679 0)
(51.1273 -0.0340417 0)
(51.1368 -0.0352329 0)
(51.1464 -0.0353365 0)
(51.1564 -0.0318986 0)
(51.1663 -0.0259119 0)
(51.1756 -0.0159792 0)
(51.1831 -0.00244291 0)
(51.1877 0.0150814 0)
(51.1877 0.0358206 0)
(51.1817 0.0587077 0)
(51.1685 0.0816256 0)
(51.1478 0.101951 0)
(51.1206 0.116907 0)
(51.0891 0.1243 0)
(51.0567 0.123286 0)
(51.0265 0.114561 0)
(51.001 0.100212 0)
(50.9813 0.082877 0)
(50.9673 0.0650589 0)
(50.9579 0.0485686 0)
(50.9521 0.0344171 0)
(50.9487 0.0229379 0)
(50.9469 0.0139877 0)
(50.9465 0.00719557 0)
(50.9475 0.00214144 0)
(50.95 -0.00153586 0)
(50.9541 -0.00416896 0)
(50.9595 -0.00581464 0)
(50.9646 -0.00655581 0)
(50.9673 -0.00657279 0)
(50.965 -0.00637489 0)
(50.9543 -0.00537951 0)
(50.9308 -0.00469899 0)
(50.8904 -0.00345678 0)
(50.8294 -0.00244532 0)
(50.7462 -0.0016189 0)
(50.6403 -0.000761248 0)
(50.5105 -5.51624e-05 0)
(50.3528 -8.83995e-05 0)
(50.1666 0.002146 0)
(49.8421 0.00232044 0)
(51.0406 0.0441606 0)
(51.0702 0.0178975 0)
(51.067 0.0119216 0)
(51.0866 0.0036001 0)
(51.0899 -0.00948577 0)
(51.1023 -0.0149841 0)
(51.1089 -0.0245205 0)
(51.1186 -0.0286899 0)
(51.1271 -0.0338177 0)
(51.1367 -0.0352286 0)
(51.1465 -0.035591 0)
(51.1569 -0.032488 0)
(51.1673 -0.0268633 0)
(51.1773 -0.0173044 0)
(51.1859 -0.00404838 0)
(51.1919 0.0134125 0)
(51.1938 0.0345143 0)
(51.1898 0.0584203 0)
(51.1786 0.0832234 0)
(51.1595 0.106365 0)
(51.1329 0.12489 0)
(51.1008 0.136123 0)
(51.0662 0.138532 0)
(51.0327 0.132142 0)
(51.0034 0.11865 0)
(50.98 0.100705 0)
(50.9631 0.0811614 0)
(50.9519 0.0623113 0)
(50.9452 0.04561 0)
(50.9416 0.0317256 0)
(50.9402 0.0207053 0)
(50.9404 0.01224 0)
(50.9419 0.00586551 0)
(50.9449 0.0011434 0)
(50.9496 -0.00227665 0)
(50.9558 -0.00471237 0)
(50.9624 -0.00615563 0)
(50.9672 -0.00667908 0)
(50.9675 -0.00650921 0)
(50.9603 -0.00614164 0)
(50.9413 -0.00497635 0)
(50.9055 -0.00416056 0)
(50.8493 -0.00282488 0)
(50.77 -0.00177665 0)
(50.6667 -0.000971599 0)
(50.539 -0.0001827 0)
(50.3849 0.000504396 0)
(50.1973 0.00040271 0)
(49.9389 0.00285498 0)