/*--------------------------------*- C++ -*----------------------------------*\
  =========                 |
  \\      /  F ield         | OpenFOAM: The Open Source CFD Toolbox
   \\    /   O peration     | Website:  https://openfoam.org
    \\  /    A nd           | Version:  dev
     \\/     M anipulation  |
\*---------------------------------------------------------------------------*/
FoamFile
{
    version     2.0;
    format      ascii;
    class       volScalarField;
    location    "125";
    object      yPlus;
}
// * * * * * * * * * * * * * * * * * * * * * * * * * * * * * * * * * * * * * //

dimensions      [0 0 0 0 0 0 0];

internalField   uniform 0;

boundaryField
{
    inlet-l
    {
        type            calculated;
        value           uniform 0;
    }
    airfoil-l1
    {
        type            calculated;
        value           nonuniform List<scalar> 
71
(
191.486
214.788
249.887
283.693
310.26
327.654
337.96
343.13
344.655
343.671
340.864
336.996
331.628
325.203
318.116
310.638
302.938
295.121
287.244
279.387
271.612
263.939
256.399
249.021
241.83
234.853
228.11
221.615
215.416
209.542
204.03
198.921
194.257
190.08
186.458
183.433
181.017
179.17
177.841
177.005
176.586
176.522
176.76
177.118
177.552
177.894
178.2
178.373
178.442
178.383
178.2
177.763
177.027
176.082
174.932
173.588
172.126
170.44
168.527
166.306
163.857
161.197
158.441
155.67
152.918
150.234
147.6
145.034
142.494
140.097
137.579
)
;
    }
    empty-1
    {
        type            empty;
    }
    empty-2
    {
        type            empty;
    }
    wall-l1
    {
        type            calculated;
        value           nonuniform List<scalar> 
104
(
21.6757
21.8492
22.0274
22.2043
22.3777
22.5481
22.7174
22.8929
23.083
23.2881
23.5053
23.7366
23.9798
24.2329
24.4898
24.7476
25.0044
25.258
25.5052
25.7468
25.9831
26.2139
26.4395
26.6615
26.8797
27.0953
27.309
27.5209
27.7306
27.9388
28.1462
28.3519
28.5554
28.7589
28.9599
29.1598
29.3581
29.5549
29.7503
29.9437
30.1364
30.3274
30.5165
30.7044
30.8913
31.0759
31.2594
31.4407
31.6215
31.7994
31.9753
32.1501
32.3219
32.4922
32.6593
32.8248
32.9867
33.1463
33.303
33.4565
33.6068
33.7536
33.8963
34.0361
34.1719
34.3022
34.4289
34.5514
34.6686
34.7803
34.8876
34.9885
35.084
35.1735
35.2567
35.334
35.4036
35.4667
35.5227
35.5711
35.6121
35.6451
35.6698
35.6872
35.6957
35.6958
35.6872
35.6696
35.6427
35.6076
35.5623
35.5088
35.4448
35.3723
35.2894
35.1979
35.0962
34.9843
34.8633
34.733
34.5924
34.4408
34.2863
34.0971
)
;
    }
    airfoil-l2
    {
        type            calculated;
        value           nonuniform List<scalar> 
104
(
137.252
139.67
141.602
143.052
144.106
144.792
145.052
144.786
144.223
143.531
142.818
142.145
141.535
140.988
140.471
139.973
139.48
139.019
138.562
138.119
137.687
137.264
136.838
136.398
135.941
135.463
134.955
134.421
133.868
133.295
132.701
132.1
131.491
130.865
130.237
129.615
128.98
128.313
127.602
126.858
126.115
125.411
124.752
124.121
123.475
122.777
122.019
121.219
120.426
119.67
118.957
118.279
117.608
116.923
116.219
115.494
114.762
114.035
113.311
112.586
111.847
111.099
110.341
109.562
108.774
107.975
107.164
106.339
105.506
104.667
103.817
102.953
102.085
101.214
100.325
99.4436
98.5542
97.6505
96.7405
95.8178
94.8786
93.9129
92.9305
91.9128
90.8566
89.7658
88.6389
87.4812
86.2837
85.0822
83.8619
82.6387
81.4073
80.1761
78.9309
77.6585
76.3349
74.9289
73.4088
71.6885
69.7581
67.3036
64.7037
59.3533
)
;
    }
    empty-3
    {
        type            empty;
    }
    empty-4
    {
        type            empty;
    }
    wall-l2
    {
        type            calculated;
        value           nonuniform List<scalar> 
51
(
33.9331
33.7206
33.5016
33.2711
33.0269
32.7698
32.4985
32.2129
31.9127
31.5971
31.2656
30.9178
30.5534
30.1717
29.7724
29.3551
28.9193
28.4647
27.991
27.4976
26.9845
26.4511
25.8973
25.3228
24.7277
24.1117
23.4755
22.8191
22.1439
21.451
20.7437
20.0251
19.3021
18.5828
17.8817
17.2196
16.6183
16.1092
15.7299
15.5115
15.4742
15.6164
15.9174
16.3425
16.8524
17.4119
17.9908
18.5631
19.1352
19.6045
20.4455
)
;
    }
    outlet-l
    {
        type            calculated;
        value           uniform 0;
    }
    empty-5
    {
        type            empty;
    }
    empty-6
    {
        type            empty;
    }
    outlet-h
    {
        type            calculated;
        value           uniform 0;
    }
    wall-h2
    {
        type            calculated;
        value           nonuniform List<scalar> 
51
(
34.3693
34.1574
33.9387
33.7085
33.4647
33.2081
32.9373
32.6523
32.3529
32.0382
31.7079
31.3614
30.9986
30.6188
30.2217
29.8068
29.3738
28.9223
28.4519
27.9623
27.4532
26.9241
26.3749
25.8052
25.2149
24.6037
23.9717
23.3188
22.6456
21.9524
21.241
20.5128
19.7721
19.0236
18.2764
17.5428
16.8451
16.2035
15.6528
15.2313
14.9753
14.9064
15.0257
15.3098
15.7211
16.2177
16.7619
17.3196
17.8916
18.3701
19.2353
)
;
    }
    empty-7
    {
        type            empty;
    }
    empty-8
    {
        type            empty;
    }
    airfoil-h2
    {
        type            calculated;
        value           nonuniform List<scalar> 
104
(
135.848
138.234
140.16
141.612
142.666
143.359
143.661
143.467
142.988
142.372
141.715
141.085
140.512
139.99
139.499
139.04
138.595
138.181
137.773
137.384
137.002
136.618
136.23
135.833
135.414
134.96
134.49
133.995
133.477
132.947
132.394
131.817
131.225
130.633
130.027
129.398
128.74
128.055
127.361
126.661
125.98
125.306
124.634
123.945
123.233
122.5
121.753
121.008
120.273
119.543
118.828
118.104
117.388
116.681
115.973
115.264
114.554
113.829
113.087
112.343
111.587
110.836
110.071
109.3
108.517
107.723
106.915
106.093
105.266
104.432
103.585
102.738
101.879
101.014
100.143
99.2607
98.3772
97.4778
96.5697
95.6448
94.6991
93.7385
92.7529
91.7348
90.6904
89.6192
88.5142
87.3828
86.2273
85.0527
83.8613
82.6527
81.4241
80.1745
78.886
77.5442
76.1222
74.5886
72.9078
71.0136
68.8918
66.2457
63.4692
57.906
)
;
    }
    wall-h1
    {
        type            calculated;
        value           nonuniform List<scalar> 
104
(
22.0247
22.199
22.3866
22.5797
22.7688
22.958
23.1459
23.3373
23.5394
23.7525
23.9751
24.2073
24.4481
24.6966
24.9481
25.2003
25.4517
25.7001
25.9442
26.1841
26.4191
26.6502
26.8768
27.1002
27.3198
27.5371
27.7517
27.964
28.1746
28.3822
28.5889
28.7931
28.9959
29.1974
29.3966
29.5946
29.7911
29.9861
30.1799
30.3718
30.5636
30.7526
30.9413
31.1276
31.314
31.4979
31.6805
31.8617
32.0411
32.219
32.3941
32.5677
32.7398
32.9091
33.0758
33.2407
33.4023
33.5615
33.7174
33.8716
34.0213
34.168
34.3106
34.4506
34.5865
34.717
34.8439
34.9668
35.084
35.1966
35.3044
35.4064
35.5021
35.5923
35.6762
35.7543
35.8246
35.888
35.9453
35.9952
36.0365
36.07
36.0965
36.1137
36.1236
36.1245
36.1165
36.0998
36.0735
36.0391
35.9944
35.9414
35.8779
35.806
35.7234
35.6322
35.5304
35.4193
35.299
35.1679
35.0279
34.8771
34.7215
34.5329
)
;
    }
    empty-9
    {
        type            empty;
    }
    empty-10
    {
        type            empty;
    }
    inlet-h
    {
        type            calculated;
        value           uniform 0;
    }
    airfoil-h1
    {
        type            calculated;
        value           nonuniform List<scalar> 
71
(
189.587
209.976
244.464
279.012
307.358
326.744
338.81
345.381
347.958
347.707
345.401
341.761
336.685
330.352
323.208
315.565
307.617
299.497
291.262
283.021
274.83
266.716
258.727
250.893
243.222
235.766
228.543
221.59
214.927
208.591
202.632
197.098
192.03
187.475
183.513
180.181
177.502
175.455
173.973
173.015
172.54
172.464
172.703
173.123
173.653
174.104
174.488
174.76
174.939
175.025
174.951
174.702
174.148
173.341
172.317
171.112
169.784
168.264
166.468
164.383
162
159.395
156.666
153.912
151.188
148.517
145.944
143.424
140.959
138.639
136.184
)
;
    }
    empty-11
    {
        type            empty;
    }
    empty-12
    {
        type            empty;
    }
}


// ************************************************************************* //
