/*--------------------------------*- C++ -*----------------------------------*\
  =========                 |
  \\      /  F ield         | OpenFOAM: The Open Source CFD Toolbox
   \\    /   O peration     | Website:  https://openfoam.org
    \\  /    A nd           | Version:  dev
     \\/     M anipulation  |
\*---------------------------------------------------------------------------*/
FoamFile
{
    version     2.0;
    format      ascii;
    class       volScalarField;
    location    "250";
    object      nut;
}
// * * * * * * * * * * * * * * * * * * * * * * * * * * * * * * * * * * * * * //

dimensions      [0 2 -1 0 0 0 0];

internalField   nonuniform List<scalar> 
29380
(
7.85817e-06
8.00543e-06
7.29632e-06
9.36189e-06
8.55768e-06
6.93886e-06
9.9997e-06
1.07894e-05
8.54967e-06
7.04906e-06
9.76087e-06
1.10075e-05
1.13171e-05
8.70182e-06
7.58403e-06
9.21383e-06
9.77042e-06
1.1582e-05
1.12594e-05
8.52662e-06
8.02983e-06
8.84909e-06
8.53726e-06
1.00068e-05
1.14858e-05
1.02509e-05
8.41362e-06
8.723e-06
8.81406e-06
8.11013e-06
8.42159e-06
1.00563e-05
1.07007e-05
9.49744e-06
8.22542e-06
9.55834e-06
8.97402e-06
8.49707e-06
7.82405e-06
8.56601e-06
1.00387e-05
1.00039e-05
8.50813e-06
8.29115e-06
1.05005e-05
9.12511e-06
9.20812e-06
8.24469e-06
7.92987e-06
9.07575e-06
9.88316e-06
9.12723e-06
7.73929e-06
9.1446e-06
1.06643e-05
9.17012e-06
9.64299e-06
9.13584e-06
8.21376e-06
8.47482e-06
9.42424e-06
9.66287e-06
8.26504e-06
7.6783e-06
1.00081e-05
1.05678e-05
9.14371e-06
9.55912e-06
9.75587e-06
8.97003e-06
8.43086e-06
8.97577e-06
9.81299e-06
9.26227e-06
7.60999e-06
8.33369e-06
1.06356e-05
9.7038e-06
9.11888e-06
9.18236e-06
9.73415e-06
9.57742e-06
8.76905e-06
8.74013e-06
9.54828e-06
1.0005e-05
8.52365e-06
7.71911e-06
9.03102e-06
1.06091e-05
9.18947e-06
9.12274e-06
8.8746e-06
9.29655e-06
9.67909e-06
9.16804e-06
8.73761e-06
9.10112e-06
1.00327e-05
9.65432e-06
8.14814e-06
8.04236e-06
9.84629e-06
1.02364e-05
8.95316e-06
9.13112e-06
8.82193e-06
8.88885e-06
9.38882e-06
9.38417e-06
8.88596e-06
8.75366e-06
9.49305e-06
1.01871e-05
9.09639e-06
8.0405e-06
8.85106e-06
9.97808e-06
1.02535e-05
8.50402e-06
9.11494e-06
8.97745e-06
8.76822e-06
9.04356e-06
9.37472e-06
9.08061e-06
8.66383e-06
8.88061e-06
9.88992e-06
9.82959e-06
8.71843e-06
8.42177e-06
9.12345e-06
1.03266e-05
9.78261e-06
8.27217e-06
9.07703e-06
9.17016e-06
8.91163e-06
8.87693e-06
9.24352e-06
9.23832e-06
8.82169e-06
8.57408e-06
9.20652e-06
9.88973e-06
9.47335e-06
8.60446e-06
8.58574e-06
9.39369e-06
1.04662e-05
9.04093e-06
8.6103e-06
9.04674e-06
9.25729e-06
9.13287e-06
8.91442e-06
9.109e-06
9.30983e-06
9.09346e-06
8.65401e-06
8.69189e-06
9.436e-06
9.76309e-06
9.08474e-06
8.61371e-06
8.53939e-06
9.89256e-06
9.98799e-06
9.05813e-06
8.87061e-06
9.04883e-06
9.21549e-06
9.25662e-06
9.04677e-06
9.02923e-06
9.28205e-06
9.31068e-06
8.96293e-06
8.59487e-06
8.9403e-06
9.52402e-06
9.43608e-06
9.03148e-06
8.28911e-06
8.94289e-06
9.94201e-06
9.67514e-06
9.44553e-06
8.86542e-06
9.08196e-06
9.11724e-06
9.2356e-06
9.15288e-06
9.00701e-06
9.18003e-06
9.36826e-06
9.2558e-06
8.83303e-06
8.72942e-06
9.09886e-06
9.44303e-06
9.44365e-06
8.65846e-06
8.34268e-06
9.3097e-06
9.57356e-06
9.88533e-06
9.61561e-06
8.65148e-06
9.123e-06
9.04576e-06
9.13888e-06
9.18206e-06
9.02491e-06
9.05949e-06
9.27374e-06
9.36667e-06
9.14921e-06
8.83113e-06
8.83494e-06
9.21281e-06
9.54632e-06
9.29501e-06
8.36201e-06
8.7239e-06
9.06714e-06
9.56432e-06
1.01212e-05
9.34414e-06
8.50332e-06
9.14739e-06
9.03541e-06
9.05903e-06
9.15563e-06
9.06653e-06
8.98165e-06
9.11726e-06
9.29322e-06
9.31718e-06
9.06582e-06
8.84275e-06
8.9845e-06
9.33972e-06
9.73135e-06
8.85377e-06
8.54464e-06
8.68909e-06
8.88906e-06
9.80051e-06
1.0038e-05
9.0975e-06
8.25737e-06
9.14563e-06
9.0688e-06
9.04002e-06
9.1179e-06
9.11623e-06
8.98099e-06
8.99874e-06
9.14571e-06
9.28546e-06
9.227e-06
9.01398e-06
8.90435e-06
9.03968e-06
9.72038e-06
9.43068e-06
8.76455e-06
8.70101e-06
8.45087e-06
9.03937e-06
9.99837e-06
9.83873e-06
8.90332e-06
7.82564e-06
9.12473e-06
9.10863e-06
9.06848e-06
9.09515e-06
9.15451e-06
9.04684e-06
8.97047e-06
9.03668e-06
9.15632e-06
9.23351e-06
9.16898e-06
8.96225e-06
8.84775e-06
9.36944e-06
9.72569e-06
9.13838e-06
9.01358e-06
8.52548e-06
8.44685e-06
9.41647e-06
9.96402e-06
9.82522e-06
8.42667e-06
7.45695e-06
9.09875e-06
9.12948e-06
9.10646e-06
9.08883e-06
9.16387e-06
9.13196e-06
9.02225e-06
9.01196e-06
9.05691e-06
9.14782e-06
9.20827e-06
9.06293e-06
8.82697e-06
8.96069e-06
9.62791e-06
9.39681e-06
9.32845e-06
8.99242e-06
8.36945e-06
8.791e-06
9.59456e-06
9.98663e-06
9.81145e-06
7.46726e-06
7.45499e-06
9.07935e-06
9.12863e-06
9.12665e-06
9.0903e-06
9.1413e-06
9.18409e-06
9.10307e-06
9.04997e-06
9.04155e-06
9.07637e-06
9.16018e-06
9.13019e-06
8.92403e-06
8.71341e-06
9.29006e-06
9.42693e-06
9.40006e-06
9.46937e-06
8.76883e-06
8.50242e-06
9.10885e-06
9.60406e-06
1.02163e-05
9.26866e-06
6.49308e-06
7.94356e-06
9.07216e-06
9.11713e-06
9.12545e-06
9.09426e-06
9.10287e-06
9.17944e-06
9.15946e-06
9.1009e-06
9.08291e-06
9.07136e-06
9.10993e-06
9.15628e-06
9.05391e-06
8.69367e-06
8.94665e-06
9.29501e-06
9.22703e-06
9.60393e-06
9.31819e-06
8.6273e-06
8.81037e-06
9.16417e-06
9.75075e-06
1.03667e-05
8.28075e-06
6.08302e-06
8.70798e-06
9.07759e-06
9.10595e-06
9.11428e-06
9.10035e-06
9.0732e-06
9.13356e-06
9.16694e-06
9.12807e-06
9.12259e-06
9.10951e-06
9.10631e-06
9.17251e-06
9.16446e-06
8.84798e-06
8.75596e-06
9.13299e-06
9.00049e-06
9.35142e-06
9.62654e-06
8.99306e-06
8.76914e-06
8.97105e-06
9.14189e-06
1.01465e-05
1.01713e-05
7.42565e-06
6.25564e-06
9.44706e-06
9.09227e-06
9.09924e-06
9.10474e-06
9.10817e-06
9.06838e-06
9.08382e-06
9.13686e-06
9.12578e-06
9.12608e-06
9.13618e-06
9.13117e-06
9.19338e-06
9.24214e-06
9.07219e-06
8.75813e-06
9.02933e-06
8.90836e-06
8.95917e-06
9.52198e-06
9.32729e-06
8.88598e-06
9.00135e-06
8.90352e-06
9.35317e-06
1.055e-05
9.68355e-06
7.00004e-06
6.79062e-06
9.95776e-06
9.10976e-06
9.09608e-06
9.10096e-06
9.1144e-06
9.08625e-06
9.06086e-06
9.09938e-06
9.11031e-06
9.10169e-06
9.12187e-06
9.13651e-06
9.19715e-06
9.28126e-06
9.26687e-06
8.90468e-06
9.00038e-06
9.00257e-06
8.71837e-06
9.14682e-06
9.43492e-06
9.02941e-06
9.05678e-06
9.04694e-06
8.84636e-06
9.75002e-06
1.06467e-05
9.19167e-06
6.96272e-06
7.4681e-06
9.86285e-06
9.12233e-06
9.09501e-06
9.10092e-06
9.11513e-06
9.11069e-06
9.07092e-06
9.07944e-06
9.09985e-06
9.07988e-06
9.08293e-06
9.10035e-06
9.15491e-06
9.26613e-06
9.36645e-06
9.10392e-06
9.01926e-06
9.19391e-06
8.76707e-06
8.78853e-06
9.30213e-06
9.12889e-06
9.00831e-06
9.24578e-06
8.90195e-06
8.91182e-06
1.00376e-05
1.04799e-05
8.85237e-06
7.1874e-06
7.75341e-06
9.05117e-06
9.12446e-06
9.09624e-06
9.10149e-06
9.10983e-06
9.1249e-06
9.09812e-06
9.08299e-06
9.10088e-06
9.08155e-06
9.05784e-06
9.04798e-06
9.07108e-06
9.18735e-06
9.349e-06
9.26237e-06
9.05293e-06
9.33465e-06
9.04856e-06
8.66335e-06
9.05835e-06
9.17774e-06
8.91013e-06
9.2093e-06
9.23837e-06
8.70762e-06
9.01291e-06
1.01199e-05
1.02206e-05
8.70247e-06
7.48219e-06
7.12175e-06
8.47895e-06
9.11614e-06
9.10048e-06
9.10159e-06
9.10214e-06
9.12271e-06
9.12039e-06
9.09916e-06
9.10795e-06
9.10311e-06
9.06969e-06
9.0252e-06
8.99103e-06
9.06786e-06
9.23674e-06
9.31952e-06
9.08097e-06
9.32616e-06
9.37309e-06
8.82052e-06
8.86297e-06
9.18463e-06
8.90149e-06
8.96189e-06
9.39604e-06
9.06185e-06
8.56457e-06
9.07273e-06
1.00857e-05
9.99728e-06
8.94039e-06
7.47519e-06
6.06823e-06
9.37656e-06
9.10314e-06
9.10683e-06
9.10202e-06
9.09706e-06
9.11011e-06
9.1253e-06
9.11246e-06
9.11205e-06
9.12477e-06
9.10849e-06
9.05575e-06
8.96814e-06
8.96314e-06
9.08688e-06
9.26925e-06
9.09654e-06
9.17846e-06
9.53843e-06
9.15318e-06
8.8183e-06
9.14693e-06
9.0407e-06
8.76137e-06
9.19365e-06
9.4619e-06
8.85595e-06
8.47084e-06
9.12974e-06
1.00178e-05
1.01951e-05
9.56365e-06
6.73902e-06
5.97611e-06
1.16401e-05
9.09326e-06
9.11231e-06
9.10369e-06
9.09726e-06
9.09809e-06
9.11542e-06
9.11456e-06
9.10903e-06
9.12948e-06
9.14307e-06
9.12101e-06
9.02189e-06
8.92908e-06
8.96823e-06
9.15679e-06
9.10211e-06
8.98636e-06
9.4541e-06
9.46657e-06
8.93978e-06
9.06916e-06
9.23796e-06
8.81231e-06
8.85311e-06
9.47034e-06
9.43272e-06
8.66664e-06
8.45559e-06
9.19264e-06
1.01342e-05
1.11208e-05
9.6518e-06
5.75018e-06
8.01933e-06
1.26909e-05
9.09126e-06
9.11362e-06
9.10626e-06
9.10171e-06
9.09404e-06
9.10205e-06
9.10778e-06
9.10178e-06
9.11587e-06
9.14795e-06
9.17538e-06
9.12127e-06
8.98408e-06
8.9298e-06
9.04979e-06
9.10617e-06
8.8585e-06
9.18488e-06
9.5844e-06
9.16336e-06
8.98868e-06
9.32999e-06
9.09065e-06
8.70251e-06
9.11759e-06
9.69448e-06
9.31925e-06
8.52785e-06
8.50411e-06
9.18917e-06
1.07368e-05
1.21065e-05
8.35514e-06
5.94889e-06
1.1973e-05
9.67451e-06
9.09621e-06
9.1096e-06
9.10824e-06
9.107e-06
9.09804e-06
9.09509e-06
9.10021e-06
9.09646e-06
9.0964e-06
9.12233e-06
9.18204e-06
9.20508e-06
9.09492e-06
8.97783e-06
8.99999e-06
9.11811e-06
8.85768e-06
8.88953e-06
9.44887e-06
9.37558e-06
8.96591e-06
9.23043e-06
9.37139e-06
8.86842e-06
8.76623e-06
9.44018e-06
9.79275e-06
9.13235e-06
8.45864e-06
8.39339e-06
9.19887e-06
1.181e-05
1.16235e-05
6.92095e-06
8.46254e-06
1.35331e-05
5.05416e-06
9.1031e-06
9.10236e-06
9.10821e-06
9.10995e-06
9.10507e-06
9.097e-06
9.09812e-06
9.09699e-06
9.08562e-06
9.08748e-06
9.1398e-06
9.22422e-06
9.19686e-06
9.07488e-06
9.018e-06
9.13996e-06
8.97815e-06
8.71924e-06
9.1459e-06
9.46504e-06
9.04069e-06
9.01352e-06
9.4187e-06
9.20292e-06
8.70605e-06
8.96873e-06
9.71314e-06
9.70624e-06
8.94347e-06
8.29045e-06
8.00311e-06
9.63614e-06
1.24988e-05
9.53321e-06
7.28511e-06
1.26406e-05
8.61587e-06
2.84246e-06
9.10702e-06
9.09619e-06
9.106e-06
9.10937e-06
9.10981e-06
9.10358e-06
9.10191e-06
9.10239e-06
9.0893e-06
9.06816e-06
9.08055e-06
9.17422e-06
9.23529e-06
9.16331e-06
9.07424e-06
9.16088e-06
9.15532e-06
8.74669e-06
8.84092e-06
9.38126e-06
9.19225e-06
8.84981e-06
9.19508e-06
9.41894e-06
8.94311e-06
8.67966e-06
9.24905e-06
9.81748e-06
9.50371e-06
8.77848e-06
7.83541e-06
7.78659e-06
1.06316e-05
1.15143e-05
7.99506e-06
1.04232e-05
1.36102e-05
2.93349e-06
3.25309e-06
9.10649e-06
9.09478e-06
9.10299e-06
9.10631e-06
9.11011e-06
9.10891e-06
9.10735e-06
9.10827e-06
9.10214e-06
9.07484e-06
9.04324e-06
9.09356e-06
9.19932e-06
9.20002e-06
9.12382e-06
9.16201e-06
9.29908e-06
8.94466e-06
8.68235e-06
9.16509e-06
9.33823e-06
8.87102e-06
8.88454e-06
9.33867e-06
9.24657e-06
8.73238e-06
8.81609e-06
9.49579e-06
9.74131e-06
9.3891e-06
8.53748e-06
7.30638e-06
8.32116e-06
1.11379e-05
9.38809e-06
9.09541e-06
1.49568e-05
8.28791e-06
1.10632e-06
6.11123e-06
9.10368e-06
9.09887e-06
9.10127e-06
9.10298e-06
9.10719e-06
9.10984e-06
9.10993e-06
9.11062e-06
9.11367e-06
9.09901e-06
9.04723e-06
9.03297e-06
9.12265e-06
9.17948e-06
9.13805e-06
9.13154e-06
9.33945e-06
9.20509e-06
8.73438e-06
8.92513e-06
9.38203e-06
9.08034e-06
8.7249e-06
9.04291e-06
9.35603e-06
9.00352e-06
8.67503e-06
9.07077e-06
9.60683e-06
9.69499e-06
9.44917e-06
8.09895e-06
7.24489e-06
9.31379e-06
1.00316e-05
8.60106e-06
1.37788e-05
1.54533e-05
2.98344e-06
1.45106e-06
1.83496e-05
9.10185e-06
9.10573e-06
9.10213e-06
9.10136e-06
9.10378e-06
9.10713e-06
9.1083e-06
9.1086e-06
9.11653e-06
9.12214e-06
9.0832e-06
9.02233e-06
9.05499e-06
9.12932e-06
9.12048e-06
9.07826e-06
9.26317e-06
9.39303e-06
8.95738e-06
8.77679e-06
9.28054e-06
9.35005e-06
8.83634e-06
8.77607e-06
9.20301e-06
9.23625e-06
8.81131e-06
8.81352e-06
9.3144e-06
9.63052e-06
9.89307e-06
9.40102e-06
7.6525e-06
7.88287e-06
9.46308e-06
8.39229e-06
1.12672e-05
1.97781e-05
9.78426e-06
1.45145e-06
2.91222e-06
0.000590601
9.10257e-06
9.11101e-06
9.10503e-06
9.10213e-06
9.10197e-06
9.10369e-06
9.10445e-06
9.1045e-06
9.11076e-06
9.12978e-06
9.12398e-06
9.0571e-06
9.02937e-06
9.08564e-06
9.09702e-06
9.03043e-06
9.11822e-06
9.41952e-06
9.23052e-06
8.78483e-06
9.07862e-06
9.50173e-06
9.1576e-06
8.74051e-06
8.94407e-06
9.2583e-06
9.03603e-06
8.78064e-06
9.0684e-06
9.41024e-06
9.74003e-06
1.01781e-05
8.98133e-06
7.68942e-06
8.54289e-06
8.09856e-06
8.57756e-06
1.80483e-05
2.04911e-05
4.62108e-06
2.57296e-06
3.57812e-07
0.00295267
9.10482e-06
9.11153e-06
9.10787e-06
9.10443e-06
9.10229e-06
9.10193e-06
9.1015e-06
9.10149e-06
9.10216e-06
9.12027e-06
9.14478e-06
9.10805e-06
9.04738e-06
9.06887e-06
9.0914e-06
9.01831e-06
8.98328e-06
9.28992e-06
9.4134e-06
8.93661e-06
8.88135e-06
9.42837e-06
9.48736e-06
8.97051e-06
8.79902e-06
9.10408e-06
9.16441e-06
8.87518e-06
8.92906e-06
9.22902e-06
9.3653e-06
1.00151e-05
1.01358e-05
8.5927e-06
8.22192e-06
7.89275e-06
6.60525e-06
1.21467e-05
2.50182e-05
1.43731e-05
3.30089e-06
1.80824e-05
0.00117812
0.00565011
9.10638e-06
9.10735e-06
9.10843e-06
9.10654e-06
9.10389e-06
9.10242e-06
9.10118e-06
9.1012e-06
9.09699e-06
9.10314e-06
9.13803e-06
9.14356e-06
9.08662e-06
9.07626e-06
9.10685e-06
9.05276e-06
8.9237e-06
9.09142e-06
9.42382e-06
9.15167e-06
8.78991e-06
9.16875e-06
9.61103e-06
9.32609e-06
8.88263e-06
8.94213e-06
9.14812e-06
8.97919e-06
8.8607e-06
9.11514e-06
9.13981e-06
9.38637e-06
1.02797e-05
9.7928e-06
8.77176e-06
8.19611e-06
5.82801e-06
6.72044e-06
1.88014e-05
2.49937e-05
8.41832e-06
3.51471e-06
0.00056806
0.00418
0.00761024
9.10579e-06
9.10143e-06
9.10612e-06
9.10698e-06
9.10551e-06
9.10413e-06
9.103e-06
9.10298e-06
9.09768e-06
9.0905e-06
9.11423e-06
9.14864e-06
9.12015e-06
9.09148e-06
9.12665e-06
9.11587e-06
8.9599e-06
8.9331e-06
9.28092e-06
9.32314e-06
8.84818e-06
8.87302e-06
9.44757e-06
9.58191e-06
9.14607e-06
8.91641e-06
9.06844e-06
9.04342e-06
8.83297e-06
9.00114e-06
9.1322e-06
8.94341e-06
9.61563e-06
1.03068e-05
9.76063e-06
9.18002e-06
6.44451e-06
4.08781e-06
9.29505e-06
2.39209e-05
1.76286e-05
6.20276e-06
0.000146981
0.00311214
0.00652688
0.0090794
9.10338e-06
9.09762e-06
9.10244e-06
9.10556e-06
9.10619e-06
9.10561e-06
9.10515e-06
9.10491e-06
9.10216e-06
9.08875e-06
9.09109e-06
9.12931e-06
9.13324e-06
9.10048e-06
9.13043e-06
9.17081e-06
9.06172e-06
8.88521e-06
9.08111e-06
9.37431e-06
9.02434e-06
8.70047e-06
9.09884e-06
9.57498e-06
9.42128e-06
9.05081e-06
9.03081e-06
9.08514e-06
8.86087e-06
8.8622e-06
9.17222e-06
8.93612e-06
8.91976e-06
9.86633e-06
1.0346e-05
1.04461e-05
8.49099e-06
3.93113e-06
3.87516e-06
1.37483e-05
2.20218e-05
9.81214e-06
1.83529e-05
0.0019155
0.00578191
0.00827915
0.010146
9.10092e-06
9.09801e-06
9.10005e-06
9.10345e-06
9.10572e-06
9.10599e-06
9.10613e-06
9.10555e-06
9.10644e-06
9.09605e-06
9.08114e-06
9.1032e-06
9.12763e-06
9.10082e-06
9.11173e-06
9.18546e-06
9.16856e-06
8.95122e-06
8.93167e-06
9.29727e-06
9.22888e-06
8.73397e-06
8.76501e-06
9.31281e-06
9.53312e-06
9.25415e-06
9.07746e-06
9.13108e-06
8.96632e-06
8.7658e-06
9.0892e-06
9.18306e-06
8.70421e-06
9.05562e-06
1.00271e-05
1.11107e-05
1.12798e-05
6.15917e-06
2.49567e-06
5.45045e-06
1.65686e-05
1.44722e-05
4.93674e-06
0.000932417
0.00486103
0.00771471
0.00957961
0.0108786
9.09988e-06
9.10178e-06
9.1007e-06
9.10235e-06
9.10463e-06
9.10536e-06
9.10569e-06
9.10486e-06
9.10778e-06
9.10557e-06
9.08584e-06
9.08593e-06
9.11432e-06
9.09938e-06
9.0829e-06
9.15337e-06
9.22463e-06
9.07749e-06
8.89338e-06
9.14808e-06
9.36094e-06
8.94838e-06
8.61644e-06
8.95296e-06
9.41477e-06
9.3935e-06
9.17449e-06
9.17811e-06
9.12416e-06
8.80102e-06
8.89414e-06
9.33332e-06
8.96595e-06
8.55965e-06
9.13557e-06
1.05918e-05
1.30229e-05
1.081e-05
3.74432e-06
2.50069e-06
8.3345e-06
1.46657e-05
6.2748e-06
0.000315157
0.00378218
0.00702463
0.00916377
0.0105062
0.0113362
9.10095e-06
9.10618e-06
9.10398e-06
9.10319e-06
9.10378e-06
9.10441e-06
9.10461e-06
9.10388e-06
9.10623e-06
9.11116e-06
9.09808e-06
9.08308e-06
9.10324e-06
9.10307e-06
9.06461e-06
9.09668e-06
9.2093e-06
9.18941e-06
8.96078e-06
9.00692e-06
9.36191e-06
9.22844e-06
8.71456e-06
8.6881e-06
9.14151e-06
9.38423e-06
9.25452e-06
9.20203e-06
9.25803e-06
8.98033e-06
8.74707e-06
9.20366e-06
9.34966e-06
8.6392e-06
8.38766e-06
9.27399e-06
1.23869e-05
1.51769e-05
8.49773e-06
2.66253e-06
3.86365e-06
1.05671e-05
9.31096e-06
3.60704e-05
0.00254011
0.00625729
0.00865226
0.0102146
0.0111235
0.0115705
9.10309e-06
9.10806e-06
9.1077e-06
9.10537e-06
9.10381e-06
9.10387e-06
9.10384e-06
9.10358e-06
9.10379e-06
9.11086e-06
9.10896e-06
9.09069e-06
9.09787e-06
9.1118e-06
9.06991e-06
9.04999e-06
9.14361e-06
9.23404e-06
9.0786e-06
8.93451e-06
9.24445e-06
9.42804e-06
8.9972e-06
8.64009e-06
8.86598e-06
9.23747e-06
9.2695e-06
9.18991e-06
9.29471e-06
9.20878e-06
8.78619e-06
8.91588e-06
9.47816e-06
9.11302e-06
8.24242e-06
8.07097e-06
1.00747e-05
1.549e-05
1.54403e-05
5.99251e-06
2.99488e-06
6.44797e-06
1.06292e-05
3.67665e-06
0.00136092
0.0053795
0.00807945
0.00985127
0.0109351
0.0114877
0.0116263
9.10487e-06
9.10692e-06
9.10907e-06
9.10739e-06
9.10473e-06
9.10408e-06
9.10382e-06
9.10416e-06
9.10244e-06
9.10686e-06
9.1134e-06
9.10099e-06
9.09646e-06
9.1189e-06
9.09513e-06
9.03803e-06
9.07128e-06
9.20462e-06
9.17898e-06
8.94878e-06
9.07831e-06
9.45063e-06
9.31294e-06
8.81567e-06
8.72245e-06
9.03853e-06
9.2163e-06
9.15613e-06
9.22567e-06
9.34694e-06
9.00444e-06
8.7251e-06
9.26619e-06
9.5601e-06
8.71434e-06
7.62372e-06
7.8366e-06
1.20658e-05
1.83196e-05
1.31294e-05
4.93178e-06
4.71556e-06
9.48631e-06
7.69141e-06
0.000553136
0.00435757
0.00742492
0.00943612
0.0106952
0.0113841
0.0116479
0.0115423
9.106e-06
9.10393e-06
9.10762e-06
9.10763e-06
9.10594e-06
9.10483e-06
9.10435e-06
9.10497e-06
9.10281e-06
9.10278e-06
9.11162e-06
9.10815e-06
9.09635e-06
9.11764e-06
9.12346e-06
9.06238e-06
9.03038e-06
9.1341e-06
9.21854e-06
9.02643e-06
8.94719e-06
9.30239e-06
9.49837e-06
9.11528e-06
8.76586e-06
8.88676e-06
9.12669e-06
9.12793e-06
9.11392e-06
9.32e-06
9.25537e-06
8.7786e-06
8.93144e-06
9.64452e-06
9.45029e-06
8.06886e-06
6.7575e-06
8.21137e-06
1.49564e-05
1.86751e-05
1.03395e-05
5.45915e-06
7.79235e-06
1.21695e-05
0.000161859
0.00318392
0.00668388
0.00895741
0.0104103
0.0112461
0.0116131
0.0116465
0.0113517
9.10551e-06
9.10106e-06
9.10451e-06
9.10624e-06
9.10651e-06
9.10564e-06
9.1049e-06
9.10529e-06
9.10405e-06
9.10094e-06
9.10696e-06
9.11048e-06
9.09683e-06
9.10734e-06
9.13728e-06
9.10386e-06
9.03438e-06
9.06763e-06
9.19498e-06
9.12124e-06
8.90638e-06
9.07885e-06
9.46972e-06
9.3828e-06
8.95948e-06
8.84433e-06
9.04104e-06
9.11986e-06
9.04151e-06
9.17411e-06
9.37009e-06
9.02183e-06
8.73932e-06
9.36332e-06
9.94467e-06
9.11522e-06
7.03084e-06
6.0648e-06
9.59182e-06
1.72858e-05
1.63994e-05
8.73559e-06
7.15404e-06
1.1921e-05
3.41855e-05
0.001986
0.00586461
0.00841033
0.0100747
0.0110689
0.0115584
0.0116669
0.0115204
0.0110831
9.1038e-06
9.1002e-06
9.10155e-06
9.10441e-06
9.10614e-06
9.10592e-06
9.10516e-06
9.10489e-06
9.10497e-06
9.10143e-06
9.10271e-06
9.10931e-06
9.09888e-06
9.09417e-06
9.12987e-06
9.13687e-06
9.07071e-06
9.03578e-06
9.13715e-06
9.18869e-06
8.96177e-06
8.90033e-06
9.26704e-06
9.48683e-06
9.19939e-06
8.91607e-06
8.98835e-06
9.12306e-06
9.04938e-06
9.02871e-06
9.29345e-06
9.26464e-06
8.79257e-06
8.9733e-06
9.90133e-06
1.01309e-05
8.38658e-06
5.85081e-06
6.09911e-06
1.1695e-05
1.74242e-05
1.32759e-05
8.10485e-06
9.35994e-06
1.77003e-05
0.00100049
0.00494907
0.00779554
0.00968324
0.0108506
0.0114694
0.0116795
0.0115845
0.0113011
0.0107609
9.10163e-06
9.10175e-06
9.10074e-06
9.10322e-06
9.10506e-06
9.10558e-06
9.10504e-06
9.10414e-06
9.10494e-06
9.10292e-06
9.10051e-06
9.10667e-06
9.10288e-06
9.08651e-06
9.10847e-06
9.14521e-06
9.11337e-06
9.04352e-06
9.08127e-06
9.20517e-06
9.07389e-06
8.84657e-06
9.01669e-06
9.39314e-06
9.36668e-06
9.05667e-06
8.97987e-06
9.11705e-06
9.11562e-06
8.98089e-06
9.11575e-06
9.34065e-06
9.00272e-06
8.73009e-06
9.43556e-06
1.04957e-05
1.00858e-05
7.24563e-06
5.08869e-06
7.04148e-06
1.33156e-05
1.54484e-05
1.03629e-05
7.50567e-06
9.34073e-06
0.000373176
0.00386983
0.00710869
0.00923383
0.0105864
0.0113471
0.0116621
0.0116506
0.0113993
0.0110159
0.0104065
9.09985e-06
9.10413e-06
9.10241e-06
9.10381e-06
9.10386e-06
9.10484e-06
9.10475e-06
9.10371e-06
9.10426e-06
9.1041e-06
9.10025e-06
9.10395e-06
9.10743e-06
9.08874e-06
9.08765e-06
9.1297e-06
9.13965e-06
9.0755e-06
9.05103e-06
9.17413e-06
9.18143e-06
8.92503e-06
8.84914e-06
9.17563e-06
9.38895e-06
9.19619e-06
9.01125e-06
9.0907e-06
9.17994e-06
9.04498e-06
8.98108e-06
9.23561e-06
9.1936e-06
8.72435e-06
8.89756e-06
1.00856e-05
1.10987e-05
9.56174e-06
6.061e-06
5.07285e-06
8.49938e-06
1.35713e-05
1.2539e-05
7.45347e-06
4.9148e-06
6.5494e-05
0.00263261
0.006336
0.0087238
0.0102732
0.0111871
0.0116179
0.0116908
0.0115075
0.0111403
0.0106884
0.0100381
9.09927e-06
9.10553e-06
9.105e-06
9.10569e-06
9.10332e-06
9.10403e-06
9.10449e-06
9.10381e-06
9.10368e-06
9.10454e-06
9.10124e-06
9.10173e-06
9.10996e-06
9.09874e-06
9.07909e-06
9.10405e-06
9.14117e-06
9.1098e-06
9.05099e-06
9.11881e-06
9.23354e-06
9.0775e-06
8.83248e-06
8.96057e-06
9.27548e-06
9.27379e-06
9.06733e-06
9.05314e-06
9.19114e-06
9.15812e-06
8.97523e-06
9.07158e-06
9.24728e-06
8.88418e-06
8.57414e-06
9.29301e-06
1.09129e-05
1.14291e-05
8.48817e-06
5.32004e-06
5.78239e-06
9.86954e-06
1.28794e-05
9.14107e-06
3.78191e-06
1.48118e-06
0.00143811
0.00546027
0.00814595
0.00990825
0.0109862
0.0115429
0.0117096
0.0115933
0.0112809
0.0108324
0.010339
0.0096721
9.10035e-06
9.10512e-06
9.10671e-06
9.10737e-06
9.10377e-06
9.10366e-06
9.10427e-06
9.1043e-06
9.10362e-06
9.1045e-06
9.10274e-06
9.10049e-06
9.1089e-06
9.10961e-06
9.08521e-06
9.08421e-06
9.12425e-06
9.13052e-06
9.07153e-06
9.06792e-06
9.21416e-06
9.21639e-06
8.95062e-06
8.85164e-06
9.10253e-06
9.26527e-06
9.12727e-06
9.02655e-06
9.14128e-06
9.23424e-06
9.0804e-06
8.98512e-06
9.17983e-06
9.07021e-06
8.55314e-06
8.61134e-06
9.91557e-06
1.17496e-05
1.10682e-05
7.27647e-06
5.28156e-06
7.03764e-06
1.11949e-05
1.15945e-05
5.3723e-06
3.75723e-07
0.000571962
0.00444971
0.00749139
0.0094869
0.0107411
0.011434
0.0117033
0.0116623
0.0114023
0.0109976
0.0104974
0.00998591
0.00932278
9.10284e-06
9.10354e-06
9.10665e-06
9.10771e-06
9.10482e-06
9.10392e-06
9.1042e-06
9.10476e-06
9.10406e-06
9.10442e-06
9.10427e-06
9.10044e-06
9.10492e-06
9.11504e-06
9.0993e-06
9.0789e-06
9.10242e-06
9.13316e-06
9.09814e-06
9.04246e-06
9.14542e-06
9.27348e-06
9.12306e-06
8.88323e-06
8.96291e-06
9.18989e-06
9.17082e-06
9.02923e-06
9.06392e-06
9.22501e-06
9.20646e-06
9.02625e-06
9.09292e-06
9.18282e-06
8.75323e-06
8.31185e-06
8.85375e-06
1.07251e-05
1.21865e-05
1.00177e-05
6.50367e-06
5.94077e-06
8.87584e-06
1.29123e-05
1.02001e-05
1.95918e-06
0.000127284
0.00327495
0.0067597
0.00900438
0.0104481
0.0112878
0.0116694
0.0117112
0.011511
0.0111464
0.0106809
0.0101545
0.00964485
0.00900286
9.10569e-06
9.10234e-06
9.1053e-06
9.10666e-06
9.10578e-06
9.10458e-06
9.10427e-06
9.10488e-06
9.10452e-06
9.1044e-06
9.10541e-06
9.10176e-06
9.10044e-06
9.11274e-06
9.11188e-06
9.08682e-06
9.08724e-06
9.12255e-06
9.11904e-06
9.04849e-06
9.06994e-06
9.23451e-06
9.25317e-06
9.01571e-06
8.91652e-06
9.09411e-06
9.18515e-06
9.06306e-06
9.00501e-06
9.1446e-06
9.26362e-06
9.14351e-06
9.07105e-06
9.21096e-06
9.02006e-06
8.40406e-06
8.2217e-06
9.34203e-06
1.15337e-05
1.18942e-05
8.80953e-06
6.36306e-06
7.21977e-06
1.19673e-05
1.61876e-05
1.07108e-05
4.01366e-06
0.00201619
0.00594796
0.00846161
0.0101039
0.0111005
0.0116042
0.0117378
0.0116037
0.0112859
0.0108503
0.0103511
0.00982046
0.00932984
0.00872337
9.10745e-06
9.1027e-06
9.10384e-06
9.10515e-06
9.10611e-06
9.10526e-06
9.10444e-06
9.10458e-06
9.10466e-06
9.10428e-06
9.10557e-06
9.10368e-06
9.09835e-06
9.10561e-06
9.11617e-06
9.10024e-06
9.08354e-06
9.10714e-06
9.1283e-06
9.07747e-06
9.02557e-06
9.13838e-06
9.28186e-06
9.16535e-06
8.96748e-06
9.02429e-06
9.16926e-06
9.11307e-06
8.99335e-06
9.04704e-06
9.22281e-06
9.24019e-06
9.12209e-06
9.20041e-06
9.22556e-06
8.73184e-06
8.12462e-06
8.36553e-06
1.00822e-05
1.19968e-05
1.09479e-05
7.84052e-06
6.63887e-06
9.58677e-06
1.79522e-05
2.50921e-05
1.3915e-05
0.000945275
0.00500029
0.00785698
0.00970894
0.0108692
0.011504
0.0117386
0.0116788
0.011413
0.0110134
0.0105358
0.0100262
0.00951003
0.00905295
0.00849349
9.10702e-06
9.10456e-06
9.10316e-06
9.10427e-06
9.10572e-06
9.1056e-06
9.10467e-06
9.10418e-06
9.10434e-06
9.10393e-06
9.10506e-06
9.10505e-06
9.09913e-06
9.09879e-06
9.11229e-06
9.11059e-06
9.08923e-06
9.09443e-06
9.12562e-06
9.11204e-06
9.02771e-06
9.04577e-06
9.21482e-06
9.25324e-06
9.07191e-06
9.00501e-06
9.1334e-06
9.15712e-06
9.02934e-06
8.98428e-06
9.12192e-06
9.25094e-06
9.19112e-06
9.19206e-06
9.32122e-06
9.09225e-06
8.41379e-06
8.01809e-06
8.836e-06
1.08868e-05
1.18064e-05
9.62712e-06
7.01411e-06
7.33558e-06
1.40659e-05
2.87863e-05
4.00127e-05
0.000325716
0.00382983
0.00716214
0.00926399
0.0105934
0.0113653
0.0117098
0.0117329
0.0115264
0.011167
0.0107164
0.0102218
0.00972187
0.00923594
0.00882421
0.00832021
9.1044e-06
9.1067e-06
9.10342e-06
9.10438e-06
9.10494e-06
9.10549e-06
9.10487e-06
9.10399e-06
9.10386e-06
9.10348e-06
9.10376e-06
9.1057e-06
9.1019e-06
9.09572e-06
9.1044e-06
9.11405e-06
9.0988e-06
9.0882e-06
9.11468e-06
9.13546e-06
9.06565e-06
9.00255e-06
9.10734e-06
9.24711e-06
9.1677e-06
9.03251e-06
9.09358e-06
9.17762e-06
9.09174e-06
8.97884e-06
9.02473e-06
9.1809e-06
9.21793e-06
9.19076e-06
9.32452e-06
9.34003e-06
8.84364e-06
8.1637e-06
8.19259e-06
9.59469e-06
1.13901e-05
1.09099e-05
8.06769e-06
6.11553e-06
8.5e-06
1.9382e-05
3.86258e-05
8.47068e-05
0.0025237
0.00634295
0.00875627
0.0102748
0.0111869
0.0116475
0.0117623
0.0116232
0.0113104
0.0108902
0.0104153
0.00992501
0.00945164
0.00900879
0.00865128
0.00820798
9.10091e-06
9.1077e-06
9.10419e-06
9.10502e-06
9.10421e-06
9.10508e-06
9.10496e-06
9.10412e-06
9.10361e-06
9.10319e-06
9.10259e-06
9.10487e-06
9.10482e-06
9.09763e-06
9.09794e-06
9.11065e-06
9.10711e-06
9.08925e-06
9.10102e-06
9.13871e-06
9.11339e-06
9.01912e-06
9.02337e-06
9.17106e-06
9.20944e-06
9.08288e-06
9.06455e-06
9.16877e-06
9.1525e-06
9.02208e-06
8.97599e-06
9.08441e-06
9.18532e-06
9.17896e-06
9.27367e-06
9.43203e-06
9.20701e-06
8.53772e-06
8.07833e-06
8.69881e-06
1.04232e-05
1.13592e-05
9.46447e-06
6.13342e-06
4.89622e-06
8.21908e-06
1.87724e-05
3.47335e-05
0.00142389
0.00543427
0.00816398
0.00990972
0.01097
0.0115493
0.0117627
0.0116997
0.011441
0.0110567
0.0106041
0.0101276
0.00965978
0.00922677
0.00883669
0.00853916
0.00815841
9.09854e-06
9.10704e-06
9.10495e-06
9.10548e-06
9.10384e-06
9.10462e-06
9.10489e-06
9.10444e-06
9.10376e-06
9.10332e-06
9.10215e-06
9.10337e-06
9.10622e-06
9.10136e-06
9.09661e-06
9.10471e-06
9.11074e-06
9.09522e-06
9.09074e-06
9.12406e-06
9.1447e-06
9.07361e-06
8.99959e-06
9.08021e-06
9.18945e-06
9.12804e-06
9.0546e-06
9.13687e-06
9.18925e-06
9.08859e-06
8.98384e-06
9.01522e-06
9.12198e-06
9.14769e-06
9.19907e-06
9.3992e-06
9.41378e-06
8.91733e-06
8.25113e-06
8.25539e-06
9.4894e-06
1.11484e-05
1.08408e-05
7.40391e-06
3.7717e-06
2.84726e-06
4.57532e-06
1.1969e-05
0.000744838
0.00451829
0.00749813
0.00948692
0.0107152
0.0114151
0.0117306
0.0117513
0.0115552
0.0112136
0.0107879
0.0103272
0.00986856
0.00943801
0.0090559
0.00872498
0.00848984
0.00816877
9.09876e-06
9.10546e-06
9.10548e-06
9.10548e-06
9.10386e-06
9.10428e-06
9.1047e-06
9.10471e-06
9.10418e-06
9.1038e-06
9.10262e-06
9.10219e-06
9.10545e-06
9.10535e-06
9.09793e-06
9.10028e-06
9.11015e-06
9.1029e-06
9.08708e-06
9.10222e-06
9.14784e-06
9.1289e-06
9.0334e-06
9.02396e-06
9.13339e-06
9.1499e-06
9.06396e-06
9.09604e-06
9.1914e-06
9.15181e-06
9.03017e-06
8.99395e-06
9.06811e-06
9.11001e-06
9.12333e-06
9.29518e-06
9.47358e-06
9.20903e-06
8.51794e-06
8.1011e-06
8.76013e-06
1.05321e-05
1.17981e-05
9.78293e-06
4.7518e-06
1.64125e-06
9.62375e-07
2.52123e-06
0.000357287
0.00359305
0.00681717
0.00900742
0.0104193
0.0112471
0.0116646
0.0117738
0.0116484
0.0113577
0.010965
0.0105239
0.0100757
0.00965081
0.00926895
0.00894483
0.00867596
0.00850092
0.00823784
9.10155e-06
9.10434e-06
9.10575e-06
9.10534e-06
9.10411e-06
9.10414e-06
9.10448e-06
9.10478e-06
9.10457e-06
9.10434e-06
9.10361e-06
9.10199e-06
9.1036e-06
9.10671e-06
9.10186e-06
9.09751e-06
9.10653e-06
9.10886e-06
9.09135e-06
9.08473e-06
9.12758e-06
9.15714e-06
9.09268e-06
9.02147e-06
9.0786e-06
9.146e-06
9.08613e-06
9.06231e-06
9.16113e-06
9.19226e-06
9.09055e-06
9.00994e-06
9.04222e-06
9.08689e-06
9.06928e-06
9.16908e-06
9.42864e-06
9.41426e-06
8.82105e-06
8.11569e-06
8.20011e-06
9.63723e-06
1.19181e-05
1.24872e-05
8.1895e-06
2.65013e-06
6.94257e-07
1.14972e-06
0.000122947
0.00257029
0.00614013
0.00849841
0.0100822
0.011047
0.0115663
0.0117643
0.0117158
0.0114843
0.0111324
0.0107161
0.0102815
0.00986302
0.00948417
0.00915885
0.00889619
0.00868743
0.0085711
0.00836746
9.10518e-06
9.10456e-06
9.1057e-06
9.10549e-06
9.10437e-06
9.10414e-06
9.10433e-06
9.10462e-06
9.10471e-06
9.1046e-06
9.10447e-06
9.10269e-06
9.10208e-06
9.10556e-06
9.10483e-06
9.0982e-06
9.10215e-06
9.1101e-06
9.09963e-06
9.08051e-06
9.0997e-06
9.15008e-06
9.14127e-06
9.05935e-06
9.05109e-06
9.12583e-06
9.11112e-06
9.048e-06
9.11153e-06
9.19948e-06
9.14663e-06
9.04332e-06
9.03608e-06
9.08419e-06
9.05547e-06
9.06329e-06
9.31422e-06
9.53656e-06
9.17464e-06
8.31141e-06
7.82409e-06
8.59029e-06
1.0983e-05
1.39992e-05
1.3612e-05
7.40141e-06
2.48531e-06
2.27879e-06
3.15129e-05
0.00145733
0.00535352
0.00797084
0.00971509
0.0108173
0.0114396
0.0117229
0.0117531
0.0115882
0.0112855
0.0109013
0.0104848
0.010075
0.00969951
0.0093754
0.00911073
0.00890808
0.00875807
0.00870195
0.0085554
9.10727e-06
9.10583e-06
9.10521e-06
9.106e-06
9.10451e-06
9.10419e-06
9.10426e-06
9.10437e-06
9.10454e-06
9.10449e-06
9.10474e-06
9.10371e-06
9.1017e-06
9.10338e-06
9.10559e-06
9.10073e-06
9.09876e-06
9.1086e-06
9.10672e-06
9.08744e-06
9.08103e-06
9.12125e-06
9.15626e-06
9.10791e-06
9.05591e-06
9.10234e-06
9.12895e-06
9.05752e-06
9.06266e-06
9.1724e-06
9.18642e-06
9.0832e-06
9.03432e-06
9.08595e-06
9.0811e-06
9.01217e-06
9.16478e-06
9.54149e-06
9.54e-06
8.74588e-06
7.76646e-06
7.6648e-06
9.29077e-06
1.31648e-05
1.76216e-05
1.66993e-05
1.03913e-05
7.3505e-06
1.83572e-05
0.000527386
0.00428825
0.00736762
0.00932279
0.0105636
0.0112901
0.0116536
0.0117587
0.0116642
0.0114188
0.0110749
0.0106831
0.0102859
0.00991546
0.00959248
0.00932792
0.00912297
0.00897912
0.0088892
0.00889075
0.00879689
9.1064e-06
9.10699e-06
9.10431e-06
9.10643e-06
9.1045e-06
9.10425e-06
9.10425e-06
9.10415e-06
9.1042e-06
9.10412e-06
9.10441e-06
9.10437e-06
9.10236e-06
9.10174e-06
9.10461e-06
9.10325e-06
9.09806e-06