/*--------------------------------*- C++ -*----------------------------------*\
  =========                 |
  \\      /  F ield         | OpenFOAM: The Open Source CFD Toolbox
   \\    /   O peration     | Website:  https://openfoam.org
    \\  /    A nd           | Version:  dev
     \\/     M anipulation  |
\*---------------------------------------------------------------------------*/
FoamFile
{
    version     2.0;
    format      ascii;
    class       volScalarField;
    location    "250";
    object      nuTilda;
}
// * * * * * * * * * * * * * * * * * * * * * * * * * * * * * * * * * * * * * //

dimensions      [0 2 -1 0 0 0 0];

internalField   nonuniform List<scalar> 
29380
(
5.79053e-05
5.99439e-05
5.83001e-05
6.19095e-05
6.26528e-05
5.80569e-05
6.16102e-05
6.42481e-05
6.34898e-05
5.82872e-05
6.03978e-05
6.19727e-05
6.54087e-05
6.34635e-05
5.83584e-05
5.94791e-05
5.90477e-05
6.25966e-05
6.51747e-05
6.17176e-05
5.84789e-05
5.93138e-05
5.77158e-05
5.88894e-05
6.26082e-05
6.34045e-05
6.03702e-05
5.86429e-05
5.9661e-05
5.84054e-05
5.70648e-05
5.91948e-05
6.22804e-05
6.18611e-05
5.84706e-05
5.92189e-05
6.00336e-05
6.00118e-05
5.77865e-05
5.73633e-05
6.02086e-05
6.1741e-05
5.98157e-05
5.70142e-05
6.08476e-05
6.01645e-05
6.11173e-05
5.97914e-05
5.77848e-05
5.87007e-05
6.08208e-05
6.10442e-05
5.7773e-05
5.73364e-05
6.19828e-05
6.01057e-05
6.10965e-05
6.13125e-05
5.94691e-05
5.84428e-05
5.98254e-05
6.14992e-05
6.00024e-05
5.63405e-05
5.90428e-05
6.26458e-05
6.00322e-05
6.03157e-05
6.14662e-05
6.09188e-05
5.91472e-05
5.92465e-05
6.10692e-05
6.17517e-05
5.8304e-05
5.68368e-05
6.06232e-05
6.21169e-05
6.00312e-05
5.95613e-05
6.05906e-05
6.12925e-05
6.00571e-05
5.91919e-05
6.01456e-05
6.20512e-05
6.08736e-05
5.75575e-05
5.778e-05
6.20435e-05
6.14129e-05
6.00596e-05
5.93504e-05
5.96193e-05
6.07394e-05
6.05879e-05
5.94917e-05
5.93277e-05
6.10522e-05
6.22441e-05
5.96771e-05
5.74253e-05
5.97343e-05
6.21245e-05
6.13145e-05
6.00418e-05
5.96547e-05
5.92406e-05
5.99515e-05
6.06121e-05
5.99064e-05
5.90377e-05
5.96847e-05
6.18597e-05
6.1416e-05
5.88786e-05
5.84688e-05
6.03694e-05
6.27304e-05
6.04949e-05
5.99667e-05
6.00984e-05
5.95044e-05
5.95108e-05
6.03392e-05
6.02525e-05
5.93201e-05
5.88712e-05
6.04457e-05
6.17611e-05
6.06219e-05
5.87352e-05
5.89089e-05
6.10705e-05
6.27155e-05
5.94643e-05
5.98925e-05
6.03354e-05
6.00069e-05
5.95494e-05
6.00376e-05
6.04268e-05
5.98986e-05
5.89426e-05
5.91932e-05
6.08987e-05
6.14256e-05
5.97995e-05
5.87816e-05
5.89686e-05
6.20605e-05
6.15448e-05
5.97124e-05
5.98817e-05
6.02774e-05
6.03268e-05
5.98412e-05
5.9853e-05
6.03972e-05
6.03985e-05
5.95966e-05
5.8837e-05
5.97624e-05
6.10463e-05
6.06684e-05
5.96523e-05
5.81328e-05
5.99793e-05
6.1986e-05
6.10157e-05
6.03381e-05
5.99432e-05
6.00646e-05
6.03194e-05
6.00973e-05
5.9798e-05
6.02019e-05
6.05734e-05
6.02717e-05
5.9308e-05
5.9177e-05
6.01175e-05
6.0797e-05
6.0623e-05
5.87974e-05
5.84184e-05
6.07171e-05
6.12048e-05
6.15466e-05
6.05091e-05
6.0032e-05
5.98893e-05
6.01133e-05
6.01813e-05
5.98308e-05
5.99452e-05
6.04094e-05
6.05712e-05
6.00291e-05
5.93317e-05
5.94431e-05
6.0337e-05
6.09725e-05
6.01861e-05
5.82414e-05
5.93146e-05
6.01497e-05
6.12465e-05
6.19972e-05
6.00236e-05
6.00919e-05
5.98482e-05
5.99198e-05
6.01287e-05
5.99135e-05
5.97582e-05
6.00784e-05
6.04521e-05
6.04588e-05
5.98552e-05
5.93831e-05
5.97998e-05
6.06137e-05
6.12364e-05
5.92406e-05
5.87467e-05
5.91663e-05
5.98129e-05
6.17203e-05
6.17084e-05
5.9621e-05
6.00963e-05
5.9915e-05
5.98585e-05
6.0041e-05
6.00163e-05
5.97301e-05
5.98001e-05
6.01333e-05
6.04367e-05
6.02581e-05
5.97484e-05
5.95684e-05
5.99627e-05
6.13662e-05
6.05265e-05
5.91396e-05
5.90358e-05
5.8646e-05
6.01688e-05
6.20018e-05
6.12627e-05
5.92463e-05
6.00563e-05
6.00062e-05
5.99138e-05
5.99857e-05
6.01024e-05
5.98552e-05
5.971e-05
5.98721e-05
6.0157e-05
6.03149e-05
6.01233e-05
5.96705e-05
5.94925e-05
6.0709e-05
6.1268e-05
5.99619e-05
5.96712e-05
5.86097e-05
5.87024e-05
6.0909e-05
6.18513e-05
6.1181e-05
5.84006e-05
6.00014e-05
6.00586e-05
6.00014e-05
5.99708e-05
6.0133e-05
6.00399e-05
5.98052e-05
5.97953e-05
5.99109e-05
6.01316e-05
6.02461e-05
5.98971e-05
5.94013e-05
5.98192e-05
6.11793e-05
6.05813e-05
6.04157e-05
5.95644e-05
5.83123e-05
5.94992e-05
6.11812e-05
6.19307e-05
6.09503e-05
5.69027e-05
5.99579e-05
6.00607e-05
6.0053e-05
5.99751e-05
6.00947e-05
6.0168e-05
5.99809e-05
5.9871e-05
5.98516e-05
5.99495e-05
6.01474e-05
6.00553e-05
5.95934e-05
5.92153e-05
6.05165e-05
6.07086e-05
6.06765e-05
6.06656e-05
5.90825e-05
5.87077e-05
6.01289e-05
6.11952e-05
6.24201e-05
5.95075e-05
5.54915e-05
5.99391e-05
6.00358e-05
6.00545e-05
5.99837e-05
6.00145e-05
6.0176e-05
6.01157e-05
5.99885e-05
5.99388e-05
5.99147e-05
6.00172e-05
6.0109e-05
5.98699e-05
5.91075e-05
5.97606e-05
6.04526e-05
6.0364e-05
6.11055e-05
6.0299e-05
5.88665e-05
5.94037e-05
6.01858e-05
6.15922e-05
6.25657e-05
5.71254e-05
5.51542e-05
5.99468e-05
6.00103e-05
6.00297e-05
5.99952e-05
5.99446e-05
6.00853e-05
6.01461e-05
6.00581e-05
6.004e-05
5.99972e-05
5.99906e-05
6.01311e-05
6.01026e-05
5.94042e-05
5.92924e-05
6.00962e-05
5.98445e-05
6.06837e-05
6.10839e-05
5.96409e-05
5.92585e-05
5.9679e-05
6.01774e-05
6.24694e-05
6.18799e-05
5.51494e-05
5.58691e-05
5.9975e-05
5.99954e-05
6.00068e-05
6.00108e-05
5.99252e-05
5.99731e-05
6.00875e-05
6.00586e-05
6.00633e-05
6.00735e-05
6.00487e-05
6.01728e-05
6.0264e-05
5.98736e-05
5.92443e-05
5.9854e-05
5.95646e-05
5.98325e-05
6.10049e-05
6.04131e-05
5.95048e-05
5.97373e-05
5.94838e-05
6.07598e-05
6.3247e-05
6.06233e-05
5.43061e-05
5.70809e-05
6.00116e-05
5.9989e-05
5.99974e-05
6.0025e-05
5.99584e-05
5.99122e-05
6.0003e-05
6.00233e-05
6.00138e-05
6.00603e-05
6.00826e-05
6.01991e-05
6.03549e-05
6.02957e-05
5.95293e-05
5.97809e-05
5.97064e-05
5.9203e-05
6.02607e-05
6.07294e-05
5.98288e-05
5.99237e-05
5.9744e-05
5.94209e-05
6.17337e-05
6.33404e-05
5.94369e-05
5.44885e-05
5.82999e-05
6.00405e-05
5.99866e-05
5.99977e-05
6.00289e-05
6.00122e-05
5.99254e-05
5.9952e-05
5.99952e-05
5.99576e-05
5.99777e-05
6.00233e-05
6.01379e-05
6.03485e-05
6.05311e-05
5.99497e-05
5.98209e-05
6.01113e-05
5.91947e-05
5.94285e-05
6.05142e-05
6.00523e-05
5.98759e-05
6.02736e-05
5.93773e-05
5.97089e-05
6.24031e-05
6.29019e-05
5.86557e-05
5.53107e-05
5.85803e-05
6.00487e-05
5.99881e-05
5.99998e-05
6.00195e-05
6.00481e-05
5.99832e-05
5.9954e-05
5.99938e-05
5.99499e-05
5.99094e-05
5.99078e-05
5.99753e-05
6.02134e-05
6.05294e-05
6.03028e-05
5.98969e-05
6.04576e-05
5.97467e-05
5.90413e-05
6.00044e-05
6.01598e-05
5.96461e-05
6.03354e-05
6.01473e-05
5.89739e-05
6.00716e-05
6.25822e-05
6.22806e-05
5.83528e-05
5.60549e-05
5.71678e-05
6.0034e-05
5.99954e-05
6.00002e-05
6.00032e-05
6.00483e-05
6.00362e-05
5.99887e-05
6.00096e-05
5.99921e-05
5.99189e-05
5.98373e-05
5.97935e-05
5.99757e-05
6.03225e-05
6.04542e-05
5.99601e-05
6.05061e-05
6.04587e-05
5.9287e-05
5.95412e-05
6.01837e-05
5.95531e-05
5.98415e-05
6.06601e-05
5.96693e-05
5.87266e-05
6.03005e-05
6.24664e-05
6.17431e-05
5.88701e-05
5.56884e-05
5.52117e-05
6.00068e-05
6.00081e-05
6.00004e-05
5.99907e-05
6.00224e-05
6.00528e-05
6.00213e-05
6.00218e-05
6.00433e-05
5.99972e-05
5.98805e-05
5.97139e-05
5.97401e-05
6.00143e-05
6.03769e-05
5.99941e-05
6.02382e-05
6.08871e-05
5.99659e-05
5.93775e-05
6.01231e-05
5.9794e-05
5.9314e-05
6.03615e-05
6.06681e-05
5.91722e-05
5.86047e-05
6.04645e-05
6.22532e-05
6.21058e-05
6.00235e-05
5.35463e-05
5.56513e-05
5.99838e-05
6.00205e-05
6.00031e-05
5.99893e-05
5.99943e-05
6.00341e-05
6.00298e-05
6.00183e-05
6.00617e-05
6.00795e-05
6.00137e-05
5.98001e-05
5.96349e-05
5.97464e-05
6.01499e-05
6.00034e-05
5.98291e-05
6.08049e-05
6.06626e-05
5.95803e-05
5.99722e-05
6.0225e-05
5.92991e-05
5.95981e-05
6.08915e-05
6.04834e-05
5.87629e-05
5.86561e-05
6.05936e-05
6.24998e-05
6.38901e-05
5.98796e-05
5.12462e-05
5.9976e-05
5.99769e-05
6.00254e-05
6.00083e-05
5.99978e-05
5.99825e-05
6.00038e-05
6.00164e-05
6.00031e-05
6.00375e-05
6.01036e-05
6.01423e-05
6.00035e-05
5.97213e-05
5.96356e-05
5.99121e-05
6.00054e-05
5.95167e-05
6.02918e-05
6.09951e-05
6.0031e-05
5.97893e-05
6.04925e-05
5.98487e-05
5.91298e-05
6.02203e-05
6.12589e-05
6.01678e-05
5.85148e-05
5.88275e-05
6.06307e-05
6.38559e-05
6.55235e-05
5.69161e-05
5.29077e-05
6.50968e-05
5.99862e-05
6.00189e-05
6.0013e-05
6.00095e-05
5.99893e-05
5.99855e-05
5.99983e-05
5.99897e-05
5.99946e-05
6.00573e-05
6.01778e-05
6.01967e-05
5.99459e-05
5.9714e-05
5.97847e-05
6.00222e-05
5.94634e-05
5.965e-05
6.08053e-05
6.04966e-05
5.97007e-05
6.0357e-05
6.05053e-05
5.93786e-05
5.93687e-05
6.08985e-05
6.13571e-05
5.97637e-05
5.84398e-05
5.86235e-05
6.08515e-05
6.5982e-05
6.42408e-05
5.38351e-05
6.00944e-05
6.4866e-05
6.00016e-05
6.00041e-05
6.0014e-05
6.00169e-05
6.00047e-05
5.99872e-05
5.9991e-05
5.99884e-05
5.99663e-05
5.99808e-05
6.01021e-05
6.02642e-05
6.01743e-05
5.99134e-05
5.9807e-05
6.00638e-05
5.96823e-05
5.92203e-05
6.02161e-05
6.07402e-05
5.9813e-05
5.99073e-05
6.07262e-05
6.00983e-05
5.90925e-05
5.98837e-05
6.14063e-05
6.11092e-05
5.94025e-05
5.80872e-05
5.78156e-05
6.20495e-05
6.6922e-05
5.9954e-05
5.56186e-05
6.75326e-05
5.63604e-05
6.00115e-05
5.99899e-05
6.001e-05
6.00168e-05
6.00164e-05
6.00013e-05
5.99977e-05
5.99989e-05
5.99694e-05
5.99302e-05
5.99745e-05
6.01786e-05
6.0281e-05
6.01112e-05
5.99255e-05
6.01127e-05
6.00486e-05
5.92059e-05
5.95458e-05
6.06339e-05
6.01109e-05
5.94921e-05
6.03371e-05
6.06602e-05
5.95396e-05
5.91219e-05
6.04991e-05
6.15326e-05
6.06723e-05
5.90524e-05
5.69917e-05
5.75099e-05
6.41003e-05
6.4601e-05
5.68963e-05
6.32419e-05
6.66377e-05
4.4508e-05
6.00115e-05
5.99847e-05
6.00034e-05
6.00107e-05
6.00184e-05
6.00142e-05
6.001e-05
6.00122e-05
5.99958e-05
5.99355e-05
5.98814e-05
6.00093e-05
6.02263e-05
6.02071e-05
6.00418e-05
6.01293e-05
6.03728e-05
5.95827e-05
5.91349e-05
6.02239e-05
6.04375e-05
5.94453e-05
5.96499e-05
6.06118e-05
6.0237e-05
5.91234e-05
5.9485e-05
6.09662e-05
6.13068e-05
6.04308e-05
5.84214e-05
5.57369e-05
5.90055e-05
6.46935e-05
6.02261e-05
6.00131e-05
7.06269e-05
5.46708e-05
3.85395e-05
6.00052e-05
5.99916e-05
5.99989e-05
6.00033e-05
6.00126e-05
6.00178e-05
6.00173e-05
6.00189e-05
6.00229e-05
5.99845e-05
5.98754e-05
5.98662e-05
6.00691e-05
6.01769e-05
6.00845e-05
6.0081e-05
6.04984e-05
6.01315e-05
5.91716e-05
5.97109e-05
6.0585e-05
5.98339e-05
5.91964e-05
6.00204e-05
6.05803e-05
5.96976e-05
5.90614e-05
6.00426e-05
6.11159e-05
6.12001e-05
6.04971e-05
5.7308e-05
5.57874e-05
6.12115e-05
6.20765e-05
5.89351e-05
6.90102e-05
6.96349e-05
3.92005e-05
4.26456e-05
6.00002e-05
6.00059e-05
5.99996e-05
5.9999e-05
6.00049e-05
6.00126e-05
6.00151e-05
6.00158e-05
6.00326e-05
6.00378e-05
5.99456e-05
5.98256e-05
5.99154e-05
6.00722e-05
6.00509e-05
5.99753e-05
6.03772e-05
6.05642e-05
5.96045e-05
5.93475e-05
6.0434e-05
6.04138e-05
5.93236e-05
5.93723e-05
6.03358e-05
6.02674e-05
5.9309e-05
5.94141e-05
6.05113e-05
6.11373e-05
6.16327e-05
6.02578e-05
5.62905e-05
5.75738e-05
6.12381e-05
5.86505e-05
6.50722e-05
7.68432e-05
5.86889e-05
3.25197e-05
6.61313e-05
6.00007e-05
6.00185e-05
6.00054e-05
5.99999e-05
6.00003e-05
6.00048e-05
6.0007e-05
6.0007e-05
6.00223e-05
6.00607e-05
6.00363e-05
5.98894e-05
5.98459e-05
5.99721e-05
5.9994e-05
5.9866e-05
6.00873e-05
6.06778e-05
6.01849e-05
5.93053e-05
6.00392e-05
6.0805e-05
5.99606e-05
5.91717e-05
5.97662e-05
6.03991e-05
5.98223e-05
5.92984e-05
5.99669e-05
6.06687e-05
6.14365e-05
6.21751e-05
5.92434e-05
5.65698e-05
5.90973e-05
5.80942e-05
5.98857e-05
7.62475e-05
7.59724e-05
4.59951e-05
3.50977e-05
0.000594233
6.00055e-05
6.00216e-05
6.0012e-05
6.00046e-05
6.00004e-05
6.00002e-05
5.99998e-05
5.99997e-05
6.00034e-05
6.0045e-05
6.00898e-05
5.9999e-05
5.98745e-05
5.99284e-05
5.99713e-05
5.98216e-05
5.97873e-05
6.0452e-05
6.06113e-05
5.95872e-05
5.96026e-05
6.07475e-05
6.06926e-05
5.95774e-05
5.93599e-05
6.00971e-05
6.01544e-05
5.95058e-05
5.96638e-05
6.02646e-05
6.06116e-05
6.20899e-05
6.19454e-05
5.84007e-05
5.79494e-05
5.74458e-05
5.49743e-05
6.82533e-05
8.41592e-05
6.64495e-05
4.28963e-05
2.19925e-05
0.00295282
6.00096e-05
6.0014e-05
6.00145e-05
6.00095e-05
6.00037e-05
6.00007e-05
5.99982e-05
5.99982e-05
5.99903e-05
6.00085e-05
6.00834e-05
6.00832e-05
5.99573e-05
5.99416e-05
5.99992e-05
5.9877e-05
5.96283e-05
6.00424e-05
6.06919e-05
6.0034e-05
5.93552e-05
6.02613e-05
6.10543e-05
6.03232e-05
5.94415e-05
5.97022e-05
6.01512e-05
5.97491e-05
5.95284e-05
6.00432e-05
6.00348e-05
6.07747e-05
6.25928e-05
6.11062e-05
5.88678e-05
5.77703e-05
5.22753e-05
5.66785e-05
7.92932e-05
8.23354e-05
5.55932e-05
6.93256e-05
0.00117906
0.00565015
6.00094e-05
6.00013e-05
6.00106e-05
6.00113e-05
6.00074e-05
6.00043e-05
6.00017e-05
6.00018e-05
5.99899e-05
5.99782e-05
6.0035e-05
6.01032e-05
6.00339e-05
5.99768e-05
6.00461e-05
6.0005e-05
5.9675e-05
5.96791e-05
6.04344e-05
6.04185e-05
5.94241e-05
5.96213e-05
6.08244e-05
6.09307e-05
5.99604e-05
5.95683e-05
5.99645e-05
5.98911e-05
5.94662e-05
5.98495e-05
5.99919e-05
5.96488e-05
6.13561e-05
6.25096e-05
6.0984e-05
5.96364e-05
5.32643e-05
4.7507e-05
6.4309e-05
8.48848e-05
7.21026e-05
4.5892e-05
0.000572147
0.00418007
0.00761026
6.00048e-05
5.99919e-05
6.00028e-05
6.00088e-05
6.00093e-05
6.00078e-05
6.00066e-05
6.00063e-05
5.99991e-05
5.99708e-05
5.99826e-05
6.00665e-05
6.00676e-05
6e-05
6.00649e-05
6.01306e-05
5.9878e-05
5.95362e-05
6.00169e-05
6.05679e-05
5.97661e-05
5.91828e-05
6.01403e-05
6.10291e-05
6.05702e-05
5.98021e-05
5.98398e-05
5.99645e-05
5.94952e-05
5.95748e-05
6.01481e-05
5.94985e-05
5.97213e-05
6.18818e-05
6.24793e-05
6.22424e-05
5.77258e-05
4.55847e-05
4.80934e-05
7.29958e-05
8.05593e-05
5.95904e-05
0.000179193
0.00311227
0.00652691
0.00907941
5.99991e-05
5.99911e-05
5.99966e-05
6.00041e-05
6.00086e-05
6.0009e-05
6.00092e-05
6.00082e-05
6.00091e-05
5.99846e-05
5.99563e-05
6.00096e-05
6.00583e-05
6.00015e-05
6.00336e-05
6.01795e-05
6.01121e-05
5.96471e-05
5.96709e-05
6.04445e-05
6.01998e-05
5.91747e-05
5.93916e-05
6.05685e-05
6.08863e-05
6.02321e-05
5.99031e-05
6.00437e-05
5.96802e-05
5.93319e-05
6.00652e-05
6.00501e-05
5.90287e-05
6.0151e-05
6.21862e-05
6.38966e-05
6.3393e-05
5.16504e-05
3.99931e-05
5.45174e-05
7.60352e-05
6.81439e-05
6.98124e-05
0.00191585
0.00578194
0.00827917
0.010146
5.99964e-05
5.99985e-05
5.99967e-05
6.00011e-05
6.00063e-05
6.00078e-05
6.00086e-05
6.0007e-05
6.00132e-05
6.00057e-05
5.99629e-05
5.99686e-05
6.00294e-05
5.99954e-05
5.99722e-05
6.01268e-05
6.02522e-05
5.99088e-05
5.95517e-05
6.01459e-05
6.05097e-05
5.95821e-05
5.89817e-05
5.98189e-05
6.07269e-05
6.05701e-05
6.01015e-05
6.01387e-05
5.99966e-05
5.93381e-05
5.96733e-05
6.05032e-05
5.95079e-05
5.88399e-05
6.04338e-05
6.33694e-05
6.71156e-05
6.18171e-05
4.40215e-05
4.09122e-05
6.18534e-05
7.09796e-05
5.06314e-05
0.000933828
0.00486108
0.00771473
0.00957962
0.0108786
5.99977e-05
6.00081e-05
6.00031e-05
6.0002e-05
6.00042e-05
6.00057e-05
6.00063e-05
6.00047e-05
6.00104e-05
6.00196e-05
5.99886e-05
5.99589e-05
6.00041e-05
5.99992e-05
5.99252e-05
6.001e-05
6.02418e-05
6.01601e-05
5.96703e-05
5.98366e-05
6.05581e-05
6.01717e-05
5.91065e-05
5.91899e-05
6.01957e-05
6.06128e-05
6.02888e-05
6.01987e-05
6.02958e-05
5.96715e-05
5.92927e-05
6.03483e-05
6.04073e-05
5.8813e-05
5.86124e-05
6.09095e-05
6.68383e-05
7.00538e-05
5.66622e-05
3.98361e-05
4.7514e-05
6.51278e-05
5.7709e-05
0.000324669
0.00378226
0.00702466
0.00916378
0.0105062
0.0113362
6.00021e-05
6.00138e-05
6.00112e-05
6.00065e-05
6.00038e-05
6.00043e-05
6.00043e-05
6.00036e-05
6.00049e-05
6.00205e-05
6.00135e-05
5.99738e-05
5.9992e-05
6.00164e-05
5.99264e-05
5.9902e-05
6.01131e-05
6.0278e-05
5.99168e-05
5.96573e-05
6.03474e-05
6.06323e-05
5.96665e-05
5.89974e-05
5.95901e-05
6.03497e-05
6.0349e-05
6.01844e-05
6.04103e-05
6.01586e-05
5.92845e-05
5.97397e-05
6.0836e-05
5.97985e-05
5.80053e-05
5.80923e-05
6.29345e-05
7.19461e-05
6.96829e-05
5.06023e-05
4.19732e-05
5.55244e-05
6.26751e-05
8.87777e-05
0.0025403
0.00625732
0.00865228
0.0102146
0.0111236
0.0115706
6.00067e-05
6.0012e-05
6.00157e-05
6.00111e-05
6.00056e-05
6.00044e-05
6.0004e-05
6.00046e-05
6.00014e-05
6.00123e-05
6.00249e-05
5.99965e-05
5.99894e-05
6.0034e-05
5.99749e-05
5.98626e-05
5.9955e-05
6.02347e-05
6.01424e-05
5.9663e-05
6.00046e-05
6.07444e-05
6.03445e-05
5.93067e-05
5.92202e-05
5.99368e-05
6.02603e-05
6.01153e-05
6.02922e-05
6.04981e-05
5.97037e-05
5.92335e-05
6.04939e-05
6.08511e-05
5.88816e-05
5.66777e-05
5.7911e-05
6.71928e-05
7.56504e-05
6.54823e-05
4.78833e-05
4.90607e-05
6.17192e-05
5.47652e-05
0.00136155
0.00537954
0.00807946
0.00985128
0.0109351
0.0114878
0.0116263
6.00086e-05
6.00054e-05
6.00132e-05
6.00127e-05
6.00081e-05
6.00059e-05
6.00051e-05
6.00064e-05
6.00017e-05
6.00029e-05
6.00223e-05
6.0013e-05
5.99897e-05
6.00359e-05
6.00375e-05
5.99044e-05
5.98543e-05
6.00909e-05
6.02453e-05
5.98144e-05
5.9706e-05
6.04861e-05
6.07901e-05
5.99229e-05
5.92479e-05
5.95873e-05
6.00815e-05
6.00499e-05
6.00524e-05
6.04963e-05
6.02582e-05
5.92482e-05
5.97615e-05
6.11876e-05
6.04665e-05
5.7406e-05
5.47199e-05
5.93435e-05
7.22519e-05
7.53514e-05
6.04892e-05
5.0096e-05
5.78701e-05
6.37595e-05
0.000557279
0.00435764
0.00742494
0.00943613
0.0106952
0.0113841
0.0116479
0.0115423
6.00086e-05
5.99996e-05
6.00064e-05
6.001e-05
6.00099e-05
6.00077e-05
6.00064e-05
6.00074e-05
6.00044e-05
5.99982e-05
6.00123e-05
6.00188e-05
5.99904e-05
6.00172e-05
6.00742e-05
5.99913e-05
5.98498e-05
5.99427e-05
6.021e-05
6.00156e-05
5.95858e-05
6.0026e-05
6.08043e-05
6.05144e-05
5.96228e-05
5.9456e-05
5.98983e-05
6.00284e-05
5.98708e-05
6.02073e-05
6.05668e-05
5.97373e-05
5.92504e-05
6.06971e-05
6.16435e-05
5.96142e-05
5.491e-05
5.321e-05
6.2895e-05
7.53717e-05
7.15215e-05
5.76319e-05
5.55267e-05
6.56966e-05
0.000200968
0.00318404
0.00668391
0.00895743
0.0104103
0.0112461
0.0116131
0.0116465
0.0113517
6.00054e-05
5.99966e-05
6.00005e-05
6.00055e-05
6.00093e-05
6.00087e-05
6.0007e-05
6.00068e-05
6.00067e-05
5.99988e-05
6.00028e-05
6.00166e-05
5.99935e-05
5.99889e-05
6.00656e-05
6.00677e-05
5.99212e-05
5.98629e-05
6.00919e-05
6.01692e-05
5.96761e-05
5.96164e-05
6.04281e-05
6.07944e-05
6.01306e-05
5.95751e-05
5.97772e-05
6.00397e-05
5.98599e-05
5.98716e-05
6.04615e-05
6.0295e-05
5.92852e-05
5.9854e-05
6.17461e-05
6.18339e-05
5.78725e-05
5.18519e-05
5.37883e-05
6.71579e-05
7.47974e-05
6.6492e-05
5.70052e-05
6.13608e-05
9.71909e-05
0.00198632
0.00586464
0.00841035
0.0100747
0.0110689
0.0115584
0.011667
0.0115204
0.0110831
6.0001e-05
5.99992e-05
5.99975e-05
6.00031e-05
6.00071e-05
6.00081e-05
6.00069e-05
6.00052e-05
6.0007e-05
6.00021e-05
5.99976e-05
6.0011e-05
6.0001e-05
5.99693e-05
6.00227e-05
6.00942e-05
6.00142e-05
5.987e-05
5.99689e-05
6.02191e-05
5.99038e-05
5.9454e-05
5.98969e-05
6.06614e-05
6.05161e-05
5.98591e-05
5.9747e-05
6.00394e-05
5.99936e-05
5.97236e-05
6.00887e-05
6.05268e-05
5.97235e-05
5.92494e-05
6.08882e-05
6.28137e-05
6.15335e-05
5.50958e-05
4.9835e-05
5.67221e-05
6.96293e-05
7.1152e-05
6.14558e-05
5.66349e-05
6.50744e-05
0.0010018
0.00494912
0.00779556
0.00968325
0.0108506
0.0114694
0.0116795
0.0115845
0.0113011
0.010761
5.9997e-05
6.00044e-05
6.00003e-05
6.00034e-05
6.00047e-05
6.00065e-05
6.00063e-05
6.0004e-05
6.00056e-05
6.00049e-05
5.99968e-05
6.00053e-05
6.00105e-05
5.99704e-05
5.99756e-05
6.00671e-05
6.00769e-05
5.99348e-05
5.98966e-05
6.01657e-05
6.01401e-05
5.95844e-05
5.94966e-05
6.02326e-05
6.06122e-05
6.01608e-05
5.98021e-05
5.99954e-05
6.01467e-05
5.98305e-05
5.97574e-05
6.03459e-05
6.01711e-05
5.91684e-05
5.97249e-05
6.22214e-05
6.3816e-05
6.02652e-05
5.20569e-05
5.01644e-05
6.02958e-05
6.93262e-05
6.58342e-05
5.56254e-05
4.91827e-05
0.000380343
0.00386991
0.00710872
0.00923385
0.0105864
0.0113471
0.0116621
0.0116506
0.0113993
0.0110159
0.0104065
5.99952e-05
6.00081e-05
6.00059e-05
6.00071e-05
6.00032e-05
6.0005e-05
6.00057e-05
6.00041e-05
6.00041e-05
6.0006e-05
5.99987e-05
6.00007e-05
6.0017e-05
5.99897e-05
5.99523e-05
6.00129e-05
6.00868e-05
6.00099e-05
5.98899e-05
6.00532e-05
6.02712e-05
5.9898e-05
5.94085e-05
5.97591e-05
6.04124e-05
6.03464e-05
5.9913e-05
5.99186e-05
6.01981e-05
6.00741e-05
5.96935e-05
5.99801e-05
6.03331e-05
5.94935e-05
5.89308e-05
6.06594e-05
6.38058e-05
6.42394e-05
5.78593e-05
5.01315e-05
5.26271e-05
6.29065e-05
6.72352e-05
5.89078e-05
4.40793e-05
9.67621e-05
0.00263278
0.00633603
0.00872382
0.0102733
0.0111871
0.0116179
0.0116908
0.0115075
0.0111403
0.0106884
0.0100381
5.99967e-05
6.00078e-05
6.00101e-05
6.00111e-05
6.00037e-05
6.00039e-05
6.00053e-05
6.00051e-05
6.00038e-05
6.00059e-05
6.00018e-05
5.99978e-05
6.00162e-05
6.00139e-05
5.99612e-05
5.99668e-05
6.00542e-05
6.00584e-05
5.99302e-05
5.99415e-05
6.02517e-05
6.02079e-05
5.96281e-05
5.94814e-05
6.00555e-05
6.03539e-05
6.00374e-05
5.98541e-05
6.01134e-05
6.02643e-05
5.98955e-05
5.97432e-05
6.02036e-05
5.99082e-05
5.88024e-05
5.91179e-05
6.201e-05
6.52796e-05
6.33663e-05
5.50816e-05
5.03251e-05
5.612e-05
6.4877e-05
6.38711e-05
4.8872e-05
2.25915e-05
0.00143864
0.00546031
0.00814596
0.00990826
0.0109862
0.0115429
0.0117096
0.0115933
0.0112809
0.0108324
0.0103391
0.00967211
6.00014e-05
6.00045e-05
6.00106e-05
6.00124e-05
6.00059e-05
6.00042e-05
6.00051e-05
6.00061e-05
6.00047e-05
6.00056e-05
6.0005e-05
5.99974e-05
6.00084e-05
6.00279e-05
5.99905e-05
5.99508e-05
6.00071e-05
6.00681e-05
5.99866e-05
5.98786e-05
6.01171e-05
6.0359e-05
5.9993e-05
5.95062e-05
5.97375e-05
6.02113e-05
6.0133e-05
5.9846e-05
5.99527e-05
6.02789e-05
6.01785e-05
5.97889e-05
5.99925e-05
6.01687e-05
5.92019e-05
5.83298e-05
5.9742e-05
6.36285e-05
6.58957e-05
6.12044e-05
5.33116e-05
5.25645e-05
6.03647e-05
6.69825e-05
6.0044e-05
3.13438e-05
0.000575073
0.00444977
0.00749141
0.00948691
0.0107411
0.011434
0.0117033
0.0116623
0.0114023
0.0109976
0.0104974
0.00998592
0.00932279
6.00074e-05
6.00014e-05
6.0008e-05
6.00106e-05
6.0008e-05
6.00055e-05
6.00052e-05
6.00066e-05
6.00057e-05
6.00055e-05
6.00074e-05
5.99995e-05
5.99988e-05
6.00255e-05
6.0019e-05
5.9965e-05
5.9972e-05
6.00478e-05
6.00327e-05
5.98825e-05
5.99533e-05
6.03041e-05
6.02928e-05
5.97691e-05
5.96052e-05
6.00095e-05
6.0171e-05
5.99056e-05
5.9815e-05
6.01279e-05
6.03364e-05
6.00331e-05
5.99085e-05
6.02322e-05
5.9777e-05
5.8445e-05
5.81965e-05
6.08462e-05
6.50757e-05
6.51565e-05
5.87176e-05
5.32553e-05
5.62796e-05
6.62126e-05
7.09298e-05
5.84371e-05
0.000165377
0.00327506
0.00675972
0.0090044
0.0104481
0.0112878
0.0116694
0.0117112
0.011511
0.0111464
0.0106809
0.0101545
0.00964487
0.00900287
6.00118e-05
6.00013e-05
6.00047e-05
6.00073e-05
6.0009e-05
6.0007e-05
6.00055e-05
6.00061e-05
6.00062e-05
6.00054e-05
6.00084e-05
6.00035e-05
5.99928e-05
6.00111e-05
6.00315e-05
5.99933e-05
5.99611e-05
6.00155e-05
6.0055e-05
5.99387e-05
5.98457e-05
6.01104e-05
6.03874e-05
6.00948e-05
5.96886e-05
5.98498e-05
6.01459e-05
6.00062e-05
5.97718e-05
5.99188e-05
6.02834e-05
6.02654e-05
5.99996e-05
6.01981e-05
6.02288e-05
5.91325e-05
5.78484e-05
5.85783e-05
6.23611e-05
6.57334e-05
6.32604e-05
5.67409e-05
5.44385e-05
6.21015e-05
7.53359e-05
8.12397e-05
7.68375e-05
0.00201648
0.00594799
0.00846163
0.0101039
0.0111005
0.0116042
0.0117378
0.0116038
0.0112859
0.0108504
0.0103511
0.00982048
0.00932985
0.00872338
6.00119e-05
6.00048e-05
6.00029e-05
6.0005e-05
6.00084e-05
6.00079e-05
6.00059e-05
6.00052e-05
6.00057e-05
6.00048e-05
6.00072e-05
6.00072e-05
5.9994e-05
5.99952e-05
6.00249e-05
6.00176e-05
5.99715e-05
5.99874e-05
6.00522e-05
6.00126e-05
5.9836e-05
5.9904e-05
6.02697e-05
6.03071e-05
5.99042e-05
5.97939e-05
6.0076e-05
6.01017e-05
5.98332e-05
5.97693e-05
6.00818e-05
6.03246e-05
6.01574e-05
6.01696e-05
6.04431e-05
5.99148e-05
5.84402e-05
5.76479e-05
5.965e-05
6.38357e-05
6.51611e-05
6.06533e-05
5.50973e-05
5.69684e-05
7.11423e-05
8.94932e-05
9.44731e-05
0.000946498
0.00500034
0.007857
0.00970896
0.0108692
0.011504
0.0117386
0.0116788
0.011413
0.0110134
0.0105358
0.0100262
0.00951004
0.00905296
0.0084935
6.00072e-05
6.00095e-05
6.00032e-05
6.0005e-05
6.00068e-05
6.00078e-05
6.00064e-05
6.00046e-05
6.00046e-05
6.00039e-05
6.00049e-05
6.00082e-05
5.99999e-05
5.99879e-05
6.00083e-05
6.00265e-05
5.99918e-05
5.99727e-05
6.0031e-05
6.00671e-05
5.99094e-05
5.97924e-05
6.00444e-05
6.03221e-05
6.01181e-05
5.98421e-05
5.99932e-05
6.01528e-05
5.99582e-05
5.97394e-05
5.9867e-05
6.01984e-05
6.02403e-05
6.01691e-05
6.04577e-05
6.04595e-05
5.93792e-05
5.79171e-05
5.8098e-05
6.12362e-05
6.45845e-05
6.32928e-05
5.73946e-05
5.33483e-05
6.10924e-05
8.12469e-05
0.000102339
0.000335696
0.00382991
0.00716216
0.009264
0.0105934
0.0113653
0.0117098
0.0117329
0.0115264
0.011167
0.0107164
0.0102218
0.00972188
0.00923596
0.00882422
0.00832023
5.99998e-05
6.00123e-05
6.00047e-05
6.00064e-05
6.00052e-05
6.0007e-05
6.00066e-05
6.00048e-05
6.00039e-05
6.00031e-05
6.00022e-05
6.00073e-05
6.00057e-05
5.99901e-05
5.99938e-05
6.00212e-05
6.00099e-05
5.9973e-05
6.00028e-05
6.00804e-05
6.00118e-05
5.98117e-05
5.98503e-05
6.01753e-05
6.02256e-05
5.99468e-05
5.99291e-05
6.01437e-05
6.00874e-05
5.98179e-05
5.97463e-05
5.99941e-05
6.01917e-05
6.01571e-05
6.03583e-05
6.06721e-05
6.01713e-05
5.87495e-05
5.77903e-05
5.92661e-05
6.27896e-05
6.42417e-05
6.02622e-05
5.28037e-05
5.08262e-05
6.26779e-05
8.41033e-05
0.000134019
0.00252388
0.00634298
0.00875629
0.0102748
0.0111869
0.0116475
0.0117623
0.0116232
0.0113104
0.0108903
0.0104153
0.00992502
0.00945166
0.0090088
0.0086513
0.008208
5.9994e-05
6.00114e-05
6.00064e-05
6.00076e-05
6.00043e-05
6.0006e-05
6.00065e-05
6.00054e-05
6.00041e-05
6.00032e-05
6.00009e-05
6.00041e-05
6.00096e-05
5.99983e-05
5.99879e-05
6.00084e-05
6.00196e-05
5.99847e-05
5.99793e-05
6.0054e-05
6.00863e-05
5.99217e-05
5.97795e-05
5.99782e-05
6.01989e-05
6.00468e-05
5.9903e-05
6.00841e-05
6.01721e-05
5.99524e-05
5.97485e-05
5.98351e-05
6.00619e-05
6.01022e-05
6.02101e-05
6.06203e-05
6.06173e-05
5.95787e-05
5.81866e-05
5.82755e-05
6.09371e-05
6.39477e-05
6.29135e-05
5.55128e-05
4.56543e-05
4.42335e-05
5.46742e-05
8.09058e-05
0.00142458
0.00543431
0.00816399
0.00990973
0.01097
0.0115493
0.0117627
0.0116997
0.011441
0.0110567
0.0106041
0.0101276
0.00965979
0.00922678
0.0088367
0.00853917
0.00815842
5.99933e-05
6.00081e-05
6.00075e-05
6.00077e-05
6.00043e-05
6.00053e-05
6.00062e-05
6.00061e-05
6.00049e-05
6.00041e-05
6.00016e-05
6.00013e-05
6.00087e-05
6.00068e-05
5.9992e-05
5.99968e-05
6.00185e-05
6.00008e-05
5.99699e-05
6.00076e-05
6.01014e-05
6.00452e-05
5.98381e-05
5.98428e-05
6.0085e-05
6.00998e-05
5.99175e-05
6.0001e-05
6.01877e-05
6.00855e-05
5.98379e-05
5.97788e-05
5.99418e-05
6.00236e-05
6.00547e-05
6.04171e-05
6.07503e-05
6.01802e-05
5.87681e-05
5.79531e-05
5.94702e-05
6.29347e-05
6.47888e-05
6.03922e-05
4.7985e-05
3.52612e-05
3.16761e-05
4.65799e-05
0.000748675
0.00451835
0.00749815
0.00948693
0.0107152
0.0114151
0.0117306
0.0117514
0.0115552
0.0112136
0.0107879
0.0103272
0.00986857
0.00943803
0.00905591
0.00872499
0.00848986
0.00816879
5.99984e-05
6.00052e-05
6.00082e-05
6.00072e-05
6.00048e-05
6.0005e-05
6.00057e-05
6.00063e-05
6.00058e-05
6.00053e-05
6.00036e-05
6.00005e-05
6.00048e-05
6.0011e-05
5.99991e-05
5.99925e-05
6.00112e-05
6.00137e-05
5.99759e-05
5.99686e-05
6.00633e-05
6.01151e-05
5.99641e-05
5.98219e-05
5.9963e-05
6.00972e-05
5.99609e-05
5.99272e-05
6.01352e-05
6.01762e-05
5.99604e-05
5.98073e-05
5.98827e-05
5.99694e-05
5.9935e-05
6.01604e-05
6.06724e-05
6.05829e-05
5.9365e-05
5.79627e-05
5.83126e-05
6.13861e-05
6.53388e-05
6.549e-05
5.6408e-05
3.95468e-05
2.61105e-05
3.11416e-05
0.000373305
0.00359316
0.00681719
0.00900743
0.0104194
0.0112471
0.0116646
0.0117739
0.0116484
0.0113577
0.010965
0.0105239
0.0100758
0.00965082
0.00926897
0.00894484
0.00867597
0.00850094
0.00823785
6.00063e-05
6.00051e-05
6.00082e-05
6.00073e-05
6.00054e-05
6.0005e-05
6.00054e-05
6.00061e-05
6.00062e-05
6.0006e-05
6.00056e-05
6.00017e-05
6.00012e-05
6.00091e-05
6.00064e-05
5.99922e-05
6.00027e-05
6.00191e-05
5.9993e-05
5.99533e-05
6.00043e-05
6.011e-05
6.00745e-05
5.98961e-05
5.98948e-05
6.00568e-05
6.00131e-05
5.98903e-05
6.00374e-05
6.02019e-05
6.00761e-05
5.98741e-05
5.9872e-05
5.99626e-05
5.9894e-05
5.99329e-05
6.04574e-05
6.08364e-05
6.00355e-05
5.82899e-05
5.74309e-05
5.93602e-05
6.40962e-05
6.85934e-05
6.66374e-05
5.39436e-05
3.83178e-05
3.72856e-05
0.000162275
0.00257049
0.00614016
0.00849843
0.0100823
0.011047
0.0115663
0.0117643
0.0117158
0.0114843
0.0111324
0.0107162
0.0102815
0.00986303
0.00948418
0.00915887
0.00889621
0.00868744
0.00857112
0.00836747
6.00117e-05
6.00076e-05
6.00074e-05
6.00083e-05
6.00057e-05
6.00051e-05
6.00052e-05
6.00055e-05
6.00059e-05
6.00059e-05
6.00064e-05
6.00039e-05
5.99999e-05
6.00044e-05
6.00087e-05
5.99973e-05
5.99949e-05
6.0015e-05
6.00109e-05
5.99669e-05
5.9958e-05
6.00519e-05
6.01183e-05
6.00009e-05
5.98976e-05
6.00069e-05
6.00532e-05
5.99024e-05
5.99334e-05
6.01576e-05
6.01617e-05
5.99514e-05
5.98716e-05
5.99754e-05
5.99415e-05
5.98082e-05
6.0162e-05
6.08898e-05
6.07609e-05
5.90911e-05
5.71288e-05
5.72535e-05
6.11137e-05
6.80875e-05
7.36857e-05
7.06116e-05
5.98091e-05
5.41306e-05
8.23253e-05
0.00145779
0.00535356
0.00797086
0.0097151
0.0108173
0.0114396
0.0117229
0.0117531
0.0115882
0.0112855
0.0109013
0.0104848
0.010075
0.00969952
0.00937541
0.00911075
0.00890809
0.00875808
0.00870196
0.00855542
6.00111e-05
6.00104e-05
6.00057e-05
6.00094e-05
6.00058e-05
6.00052e-05
6.00052e-05
6.00051e-05
6.00053e-05
6.00052e-05
6.00059e-05
6.00056e-05
6.00011e-05
6.00005e-05
6.00069e-05
6.0003e-05
5.99924e-05
6.00067e-05
6.0019e-05
5.9994e-05
5.99478e-05
5.99841e-05
6.00907e-05
6.00758e-05
5.99478e-05
5.99693e-05
6.00669e-05
5.99556e-05
5.98654e-05
6.00586e-05
6.01992e-05
6.00367e-05
5.9869e-05
5.99575e-05
6.00291e-05
5.98263e-05
5.98733e-05
6.06625e-05
6.13012e-05
6.03142e-05
5.78081e-05
5.59218e-05
5.73597e-05
6.38589e-05
7.41272e-05
8.12489e-05
7.89613e-05
6.98286e-05
6.56957e-05
0.000529073
0.00428831
0.00736765
0.00932281
0.0105636
0.0112901
0.0116536
0.0117587
0.0116642
0.0114188
0.0110749
0.0106831
0.010286
0.00991547
0.00959249
0.00932794
0.00912299
0.00897913
0.00888922
0.00889077
0.0087969
6.00048e-05
6.00111e-05
6.00037e-05
6.00094e-05
6.00056e-05
6.00053e-05
6.00052e-05
6.00048e-05
6.00046e-05
6.00043e-05
6.00046e-05
6.00058e-05
6.00033e-05
5.99993e-05
6.00035e-05
6.00064e-05