/*--------------------------------*- C++ -*----------------------------------*\
  =========                 |
  \\      /  F ield         | OpenFOAM: The Open Source CFD Toolbox
   \\    /   O peration     | Website:  https://openfoam.org
    \\  /    A nd           | Version:  dev
     \\/     M anipulation  |
\*---------------------------------------------------------------------------*/
FoamFile
{
    version     2.0;
    format      ascii;
    class       surfaceScalarField;
    location    "250";
    object      phi;
}
// * * * * * * * * * * * * * * * * * * * * * * * * * * * * * * * * * * * * * //

dimensions      [0 3 -1 0 0 0 0];

internalField   nonuniform List<scalar> 
58294
(
-0.473296
4.96489e-05
-0.4733
4.43221e-05
-0.429513
4.63929e-05
-0.473304
4.08093e-05
-0.429511
4.30095e-05
-0.389806
4.79083e-05
-0.473308
3.80467e-05
-0.429511
4.03405e-05
-0.389806
4.29547e-05
-0.353782
4.31713e-05
-0.473312
3.56277e-05
-0.429511
3.80724e-05
-0.389805
4.00065e-05
-0.353778
3.99054e-05
-0.321069
4.04589e-05
-0.473316
3.32987e-05
-0.429511
3.6063e-05
-0.389805
3.81338e-05
-0.353776
3.79183e-05
-0.321066
3.70033e-05
-0.291391
3.48385e-05
-0.47332
3.10642e-05
-0.429512
3.42868e-05
-0.389806
3.68011e-05
-0.353775
3.67839e-05
-0.321063
3.54267e-05
-0.291387
3.25699e-05
-0.264447
2.96674e-05
-0.473324
2.88577e-05
-0.429514
3.25018e-05
-0.389808
3.57051e-05
-0.353774
3.62149e-05
-0.321061
3.50395e-05
-0.291383
3.18054e-05
-0.264442
2.77232e-05
-0.240002
2.33442e-05
-0.473329
2.67402e-05
-0.429515
3.078e-05
-0.38981
3.4656e-05
-0.353774
3.58718e-05
-0.32106
3.51965e-05
-0.29138
3.21532e-05
-0.264438
2.74986e-05
-0.239997
2.21635e-05
-0.217805
1.70548e-05
-0.473333
2.46679e-05
-0.429518
2.89657e-05
-0.389812
3.34699e-05
-0.353775
3.55453e-05
-0.32106
3.56281e-05
-0.291378
3.30998e-05
-0.264434
2.85576e-05
-0.239992
2.25891e-05
-0.217799
1.63726e-05
-0.197665
1.04884e-05
-0.473337
2.26599e-05
-0.42952
2.7168e-05
-0.389815
3.21053e-05
-0.353777
3.49961e-05
-0.32106
3.59737e-05
-0.291376
3.42999e-05
-0.264431
3.02739e-05
-0.239987
2.43054e-05
-0.217794
1.72813e-05
-0.197659
1.03218e-05
-0.179385
3.97667e-06
-0.473341
2.06663e-05
-0.429523
2.52849e-05
-0.389819
3.05007e-05
-0.353779
3.41655e-05
-0.321061
3.61419e-05
-0.291376
3.55062e-05
-0.264429
3.23179e-05
-0.239984
2.67348e-05
-0.217789
1.95585e-05
-0.197653
1.17264e-05
-0.179379
4.29194e-06
-0.162793
-2.35907e-06
-0.473345
1.87025e-05
-0.429525
2.34322e-05
-0.389822
2.87426e-05
-0.353781
3.29895e-05
-0.321063
3.59181e-05
-0.291376
3.64491e-05
-0.264428
3.43681e-05
-0.239981
2.95729e-05
-0.217785
2.26272e-05
-0.197648
1.44669e-05
-0.179373
6.03478e-06
-0.162787
-1.71479e-06
-0.147737
-8.5439e-06
-0.473349
1.6754e-05
-0.429528
2.15394e-05
-0.389826
2.68508e-05
-0.353784
3.15402e-05
-0.321065
3.53559e-05
-0.291377
3.70714e-05
-0.264428
3.62567e-05
-0.239979
3.25186e-05
-0.217782
2.61815e-05
-0.197644
1.80322e-05
-0.179367
9.12025e-06
-0.162781
3.70511e-07
-0.147731
-7.49681e-06
-0.134073
-1.43261e-05
-0.473353
1.48703e-05
-0.429531
1.97095e-05
-0.389829
2.49519e-05
-0.353787
2.98699e-05
-0.321068
3.43842e-05
-0.291379
3.72154e-05
-0.264429
3.77445e-05
-0.239978
3.53136e-05
-0.217779
2.99318e-05
-0.19764
2.21906e-05
-0.179363
1.30888e-05
-0.162776
3.69958e-06
-0.147725
-5.2145e-06
-0.134067
-1.3097e-05
-0.12167
-1.99004e-05
-0.473356
1.30739e-05
-0.429534
1.78954e-05
-0.389832
2.30508e-05
-0.35379
2.80825e-05
-0.321072
3.3133e-05
-0.291382
3.6938e-05
-0.26443
3.87947e-05
-0.239978
3.77958e-05
-0.217777
3.36471e-05
-0.197636
2.66594e-05
-0.179358
1.77091e-05
-0.162771
7.9048e-06
-0.14772
-1.74532e-06
-0.134062
-1.05856e-05
-0.121665
-1.8365e-05
-0.110415
-2.49379e-05
-0.473359
1.142e-05
-0.429537
1.61813e-05
-0.389836
2.12312e-05
-0.353793
2.62306e-05
-0.321075
3.15998e-05
-0.291385
3.61914e-05
-0.264433
3.92775e-05
-0.239979
3.97844e-05
-0.217777
3.70987e-05
-0.197634
3.12043e-05
-0.179354
2.27621e-05
-0.162766
1.28575e-05
-0.147714
2.62161e-06
-0.134057
-7.0553e-06
-0.121659
-1.57464e-05
-0.11041
-2.33691e-05
-0.100202
-2.97424e-05
-0.473362
9.92285e-06
-0.42954
1.45276e-05
-0.389839
1.94522e-05
-0.353797
2.4375e-05
-0.321079
2.99076e-05
-0.291388
3.5083e-05
-0.264436
3.92366e-05
-0.239981
4.1199e-05
-0.217777
4.01059e-05
-0.197632
3.55987e-05
-0.179351
2.80324e-05
-0.162761
1.83489e-05
-0.147709
7.7521e-06
-0.134051
-2.67334e-06
-0.121654
-1.22237e-05
-0.110405
-2.05864e-05
-0.100197
-2.79982e-05
-0.0909329
-3.39529e-05
-0.473365
8.60387e-06
-0.429543
1.30013e-05
-0.389842
1.77626e-05
-0.3538
2.25302e-05
-0.321083
2.80634e-05
-0.291392
3.36161e-05
-0.264439
3.86429e-05
-0.239984
4.19718e-05
-0.217778
4.25449e-05
-0.197632
3.96514e-05
-0.179349
3.32946e-05
-0.162757
2.42019e-05
-0.147704
1.3535e-05
-0.134046
2.53151e-06
-0.121649
-7.86243e-06
-0.1104
-1.71312e-05
-0.100193
-2.51528e-05
-0.0909286
-3.23477e-05
-0.0825219
-3.79488e-05
-0.473367
7.4499e-06
-0.429546
1.15685e-05
-0.389845
1.61212e-05
-0.353803
2.0717e-05
-0.321086
2.6155e-05
-0.291396
3.19068e-05
-0.264443
3.75878e-05
-0.239987
4.21065e-05
-0.217781
4.42912e-05
-0.197633
4.31543e-05
-0.179347
3.83263e-05
-0.162754
3.02064e-05
-0.1477
1.98161e-05
-0.134041
8.45387e-06
-0.121644
-2.71521e-06
-0.110395
-1.29082e-05
-0.100188
-2.18066e-05
-0.0909243
-2.93551e-05
-0.0825178
-3.63302e-05
-0.0748819
-4.13344e-05
-0.47337
6.45646e-06
-0.429548
1.02804e-05
-0.389848
1.45754e-05
-0.353805
1.89454e-05
-0.32109
2.4187e-05
-0.2914
2.9978e-05
-0.264447
3.61077e-05
-0.239991
4.16144e-05
-0.217784
4.53248e-05
-0.197634
4.60109e-05
-0.179347
4.29399e-05
-0.162752
3.6152e-05
-0.147696
2.64173e-05
-0.134036
1.50054e-05
-0.121639
3.22764e-06
-0.11039
-7.88113e-06
-0.100183
-1.7722e-05
-0.0909199
-2.61603e-05
-0.0825139
-3.32639e-05
-0.0748782
-4.00509e-05
-0.067957
-4.45428e-05
-0.473372
5.59763e-06
-0.429551
9.1033e-06
-0.389851
1.3099e-05
-0.353808
1.72311e-05
-0.321093
2.22282e-05
-0.291403
2.79327e-05
-0.264452
3.43109e-05
-0.239996
4.05771e-05
-0.217788
4.56131e-05
-0.197637
4.80846e-05
-0.179348
4.6932e-05
-0.162751
4.17978e-05
-0.147693
3.31261e-05
-0.134032
2.2033e-05
-0.121633
9.8952e-06
-0.110385
-2.04356e-06
-0.100178
-1.29153e-05
-0.0909153
-2.23013e-05
-0.0825098
-3.02378e-05
-0.0748746
-3.68028e-05
-0.0679536
-4.344e-05
-0.0616655
-4.71458e-05
-0.473374
4.85878e-06
-0.429553
8.06635e-06
-0.389853
1.17355e-05
-0.35381
1.55904e-05
-0.321096
2.02876e-05
-0.291407
2.58051e-05
-0.264456
3.2261e-05
-0.240001
3.90558e-05
-0.217792
4.52177e-05
-0.197641
4.93625e-05
-0.17935
5.01942e-05
-0.162751
4.69629e-05
-0.147691
3.97279e-05
-0.134028
2.9358e-05
-0.121629
1.71886e-05
-0.11038
4.61315e-06
-0.100173
-7.25584e-06
-0.0909105
-1.77361e-05
-0.0825055
-2.6575e-05
-0.0748708
-3.39751e-05
-0.0679503
-4.00668e-05
-0.0616624
-4.65965e-05
-0.0559615
-4.96087e-05
-0.473375
4.20819e-06
-0.429555
7.13168e-06
-0.389856
1.04586e-05
-0.353813
1.40356e-05
-0.321099
1.84186e-05
-0.29141
2.36767e-05
-0.26446
3.00634e-05
-0.240005
3.7166e-05
-0.217798
4.41871e-05
-0.197645
4.9818e-05
-0.179353
5.25968e-05
-0.162752
5.14396e-05
-0.14769
4.59787e-05
-0.134025
3.67498e-05
-0.121624
2.49461e-05
-0.110374
1.20138e-05
-0.100167
-7.30664e-07
-0.0909054
-1.23446e-05
-0.082501
-2.23224e-05
-0.0748668
-3.05707e-05
-0.0679469
-3.74413e-05
-0.0616594
-4.29757e-05
-0.0559586
-4.94559e-05
-0.0507848
-5.15081e-05
-0.473377
3.62553e-06
-0.429557
6.30919e-06
-0.389858
9.30088e-06
-0.353815
1.25777e-05
-0.321101
1.66302e-05
-0.291414
2.15773e-05
-0.264464
2.77786e-05
-0.24001
3.49913e-05
-0.217803
4.26291e-05
-0.197651
4.95101e-05
-0.179358
5.4125e-05
-0.162755
5.51056e-05
-0.14769
5.16883e-05
-0.134023
4.3995e-05
-0.12162
3.29751e-05
-0.110369
2.00439e-05
-0.100162
6.64898e-06
-0.0909001
-6.03087e-06
-0.0824961
-1.72302e-05
-0.0748625
-2.66173e-05
-0.0679432
-3.42459e-05
-0.0616562
-4.05789e-05
-0.0559559
-4.56337e-05
-0.0507821
-5.21283e-05
-0.0460837
-5.33154e-05
-0.473378
3.08596e-06
-0.429559
5.56119e-06
-0.38986
8.23709e-06
-0.353817
1.12267e-05
-0.321103
1.49547e-05
-0.291416
1.95627e-05
-0.264468
2.54858e-05
-0.240015
3.26395e-05
-0.217809
4.06386e-05
-0.197657
4.84988e-05
-0.179363
5.47478e-05
-0.162759
5.78467e-05
-0.147692
5.66449e-05
-0.134022
5.08432e-05
-0.121617
4.10411e-05
-0.110365
2.85204e-05
-0.100157
1.47896e-05
-0.0908947
1.20647e-06
-0.0824909
-1.12127e-05
-0.0748579
-2.18818e-05
-0.0679391
-3.06392e-05
-0.0616528
-3.76437e-05
-0.0559531
-4.34611e-05
-0.0507797
-4.79729e-05
-0.0460813
-5.45456e-05
-0.0418196
-5.4611e-05
-0.47338
2.58002e-06
-0.429561
4.89668e-06
-0.389861
7.2943e-06
-0.353818
9.99083e-06
-0.321106
1.3399e-05
-0.291419
1.7646e-05
-0.264472
2.32288e-05
-0.24002
3.01838e-05
-0.217814
3.83305e-05
-0.197663
4.68955e-05
-0.179369
5.45322e-05
-0.162763
5.96206e-05
-0.147695
6.07233e-05
-0.134023
5.70891e-05
-0.121616
4.89218e-05
-0.110361
3.72472e-05
-0.100152
2.35486e-05
-0.0908892
9.32555e-06
-0.0824855
-4.20193e-06
-0.0748529
-1.61958e-05
-0.0679348
-2.62557e-05
-0.0616491
-3.43541e-05
-0.05595
-4.07297e-05
-0.0507771
-4.60471e-05
-0.0460791
-5.01063e-05
-0.0418173
-5.68157e-05
-0.0379499
-5.58514e-05
-0.473381
2.10536e-06
-0.429563
4.28726e-06
-0.389863
6.45786e-06
-0.35382
8.87806e-06
-0.321108
1.19769e-05
-0.291422
1.58621e-05
-0.264475
2.10533e-05
-0.240024
2.77072e-05
-0.21782
3.5802e-05
-0.197669
4.4802e-05
-0.179376
5.35389e-05
-0.162769
6.04214e-05
-0.147699
6.38011e-05
-0.134024
6.25364e-05
-0.121615
5.63595e-05
-0.110358
4.59804e-05
-0.100147
3.27387e-05
-0.0908838
1.8203e-05
-0.0824799
3.77514e-06
-0.0748476
-9.49311e-06
-0.06793
-2.09501e-05
-0.061645
-3.03603e-05
-0.0559465
-3.77929e-05
-0.0507743
-4.35605e-05
-0.0460767
-4.84174e-05
-0.0418154
-5.19599e-05
-0.0379479
-5.88607e-05
-0.0344375
-5.66531e-05
-0.473382
1.67154e-06
-0.429564
3.74436e-06
-0.389864
5.73982e-06
-0.353821
7.89717e-06
-0.321109
1.06871e-05
-0.291424
1.42078e-05
-0.264478
1.89889e-05
-0.240029
2.52571e-05
-0.217825
3.31519e-05
-0.197676
4.23404e-05
-0.179383
5.18851e-05
-0.162776
6.02981e-05
-0.147704
6.58373e-05
-0.134028
6.70229e-05
-0.121615
6.31463e-05
-0.110356
5.44851e-05
-0.100143
4.21538e-05
-0.0908788
2.76871e-05
-0.0824743
1.26294e-05
-0.074842
-1.75015e-06
-0.0679249
-1.45924e-05
-0.0616405
-2.54369e-05
-0.0559427
-3.41654e-05
-0.0507711
-4.0933e-05
-0.0460742
-4.61141e-05
-0.0418133
-5.05317e-05
-0.0379462
-5.36459e-05
-0.0344356
-6.07983e-05
-0.0312502
-5.74459e-05
-0.473382
1.28678e-06
-0.429566
3.24883e-06
-0.389866
5.11444e-06
-0.353823
7.03953e-06
-0.321111
9.53458e-06
-0.291426
1.26964e-05
-0.264481
1.70529e-05
-0.240033
2.28933e-05
-0.217831
3.04536e-05
-0.197682
3.96192e-05
-0.17939
4.96763e-05
-0.162783
5.93271e-05
-0.147711
6.68235e-05
-0.134032
7.04557e-05
-0.121617
6.90745e-05
-0.110356
6.25123e-05
-0.100141
5.1538e-05
-0.0908742
3.7579e-05
-0.0824689
2.22354e-05
-0.0748364
6.96347e-06
-0.0679195
-7.15498e-06
-0.0616356
-1.94712e-05
-0.0559385
-2.96532e-05
-0.0507676
-3.76933e-05
-0.0460713
-4.38192e-05
-0.0418109
-4.84499e-05
-0.0379442
-5.24649e-05
-0.0344341
-5.50947e-05
-0.0312484
-6.25415e-05
-0.0283582
-5.78754e-05
-0.473383
9.57155e-07
-0.429567
2.80905e-06
-0.389867
4.57372e-06
-0.353824
6.294e-06
-0.321112
8.50319e-06
-0.291428
1.13226e-05
-0.264484
1.52568e-05
-0.240036
2.06366e-05
-0.217836
2.77858e-05
-0.197689
3.67401e-05
-0.179397
4.70485e-05
-0.162791
5.76177e-05
-0.147718
6.68079e-05
-0.134038
7.27653e-05
-0.121621
7.39858e-05
-0.110356
6.98228e-05
-0.100139
6.06546e-05
-0.0908703
4.76612e-05
-0.0824637
3.2431e-05
-0.0748307
1.65482e-05
-0.0679138
1.31695e-06
-0.0616304
-1.23861e-05
-0.0559339
-2.40818e-05
-0.0507636
-3.35702e-05
-0.046068
-4.09284e-05
-0.0418083
-4.64409e-05
-0.0379421
-5.05462e-05
-0.0344324
-5.41821e-05
-0.0312471
-5.64181e-05
-0.0283566
-6.42163e-05
-0.0257336
-5.83278e-05
-0.473384
6.79227e-07
-0.429568
2.41119e-06
-0.389868
4.08459e-06
-0.353825
5.63601e-06
-0.321114
7.58444e-06
-0.291429
1.00809e-05
-0.264486
1.36099e-05
-0.240039
1.85186e-05
-0.21784
2.51897e-05
-0.197695
3.38029e-05
-0.179405
4.4109e-05
-0.1628
5.52946e-05
-0.147727
6.58646e-05
-0.134045
7.39571e-05
-0.121626
7.77754e-05
-0.110359
7.62319e-05
-0.100138
6.92406e-05
-0.0908673
5.76794e-05
-0.0824591
4.30028e-05
-0.0748251
2.68668e-05
-0.067908
1.0759e-05
-0.0616249
-4.21501e-06
-0.0559289
-1.73817e-05
-0.0507593
-2.84185e-05
-0.0460644
-3.72055e-05
-0.0418053
-4.39107e-05
-0.0379397
-4.88418e-05
-0.0344304
-5.24596e-05
-0.0312455
-5.57547e-05
-0.0283554
-5.75478e-05
-0.0257321
-6.57256e-05
-0.0233524
-5.84864e-05
-0.473384
4.47684e-07
-0.429569
2.06224e-06
-0.389869
3.64158e-06
-0.353826
5.04396e-06
-0.321115
6.75804e-06
-0.291431
8.96052e-06
-0.264488
1.21063e-05
-0.240042
1.65524e-05
-0.217844
2.2712e-05
-0.1977
3.08738e-05
-0.179412
4.09926e-05
-0.162808
5.24841e-05
-0.147735
6.41124e-05
-0.134054
7.406e-05
-0.121632
8.03777e-05
-0.110363
8.1564e-05
-0.100139
7.70648e-05
-0.0908655
6.73659e-05
-0.0824551
5.37273e-05
-0.0748199
3.7751e-05
-0.0679022
2.10608e-05
-0.0616191
4.98824e-06
-0.0559235
-9.57369e-06
-0.0507546
-2.21199e-05
-0.0460604
-3.24491e-05
-0.041802
-4.05499e-05
-0.037937
-4.66289e-05
-0.0344283
-5.10108e-05
-0.0312438
-5.41708e-05
-0.028354
-5.71527e-05
-0.025731
-5.85947e-05
-0.0233509
-6.71964e-05
-0.0211904
-5.86783e-05
-0.473384
2.5461e-07
-0.429571
1.75454e-06
-0.389871
3.22899e-06
-0.353827
4.50098e-06
-0.321116
6.01129e-06
-0.291432
7.95198e-06
-0.26449
1.07454e-05
-0.240045
1.47432e-05
-0.217848
2.03812e-05
-0.197706
2.8019e-05
-0.179419
3.77806e-05
-0.162816
4.93335e-05
-0.147745
6.16667e-05
-0.134063
7.31654e-05
-0.12164
8.17833e-05
-0.110368
8.57204e-05
-0.100141
8.39353e-05
-0.0908649
7.64831e-05
-0.0824521
6.43302e-05
-0.0748151
4.89776e-05
-0.0678965
3.20764e-05
-0.0616132
1.51475e-05
-0.0559178
-6.74245e-07
-0.0507494
-1.46928e-05
-0.0460559
-2.65582e-05
-0.0417982
-3.61996e-05
-0.0379339
-4.36346e-05
-0.0344258
-4.91208e-05
-0.0312418
-5.29905e-05
-0.0283524
-5.57348e-05
-0.0257297
-5.84452e-05
-0.02335
-5.94955e-05
-0.0211891
-6.85214e-05
-0.0192294
-5.86036e-05
-0.473385
9.49827e-08
-0.429572
1.49369e-06
-0.389871
2.85581e-06
-0.353827
3.99908e-06
-0.321117
5.33251e-06
-0.291433
7.04268e-06
-0.264492
9.51826e-06
-0.240047
1.30929e-05
-0.217852
1.82108e-05
-0.19771
2.52884e-05
-0.179425
3.45714e-05
-0.162825
4.59507e-05
-0.147754
5.86922e-05
-0.134072
7.13676e-05
-0.121649
8.20295e-05
-0.110375
8.86214e-05
-0.100145
8.96894e-05
-0.0908657
8.47898e-05
-0.0824501
7.45479e-05
-0.0748111
6.02849e-05
-0.0678912
4.36244e-05
-0.0616072
2.61593e-05
-0.0559119
9.25002e-06
-0.050744
-6.15749e-06
-0.0460511
-1.95495e-05
-0.0417941
-3.07099e-05
-0.0379304
-3.96513e-05
-0.034423
-4.6449e-05
-0.0312395
-5.13792e-05
-0.0283506
-5.47749e-05
-0.0257283
-5.71397e-05
-0.0233488
-5.96098e-05
-0.0211882
-6.0353e-05
-0.0192281
-6.98119e-05
-0.0174493
-5.85168e-05
-0.473385
-3.51077e-08
-0.429573
1.26981e-06
-0.389873
2.51746e-06
-0.353828
3.53798e-06
-0.321117
4.71575e-06
-0.291434
6.22635e-06
-0.264493
8.41644e-06
-0.240049
1.15987e-05
-0.217855
1.62127e-05
-0.197715
2.27081e-05
-0.179432
3.14336e-05
-0.162832
4.24555e-05
-0.147763
5.53047e-05
-0.134082
6.88298e-05
-0.121659
8.11833e-05
-0.110383
9.02646e-05
-0.100151
9.42124e-05
-0.0908682
9.21124e-05
-0.0824495
8.41469e-05
-0.0748079
7.14135e-05
-0.0678863
5.54456e-05
-0.0616015
3.78575e-05
-0.0559059
2.01295e-05
-0.0507382
3.45587e-06
-0.0460458
-1.14037e-05
-0.0417895
-2.41053e-05
-0.0379266
-3.45529e-05
-0.0344198
-4.28395e-05
-0.0312369
-4.90311e-05
-0.0283486
-5.34422e-05
-0.0257267
-5.64056e-05
-0.0233475
-5.84389e-05
-0.0211871
-6.07079e-05
-0.0192273
-6.10968e-05
-0.0174482
-7.0932e-05
-0.0158343
-5.81513e-05
-0.473385
-1.38996e-07
-0.429574
1.0819e-06
-0.389873
2.21814e-06
-0.353829
3.11902e-06
-0.321118
4.15916e-06
-0.291435
5.49288e-06
-0.264494
7.43117e-06
-0.240051
1.02522e-05
-0.217858
1.4389e-05
-0.197719
2.03044e-05
-0.179437
2.84162e-05
-0.16284
3.89476e-05
-0.147773
5.16534e-05
-0.134093
6.56698e-05
-0.121669
7.93819e-05
-0.110392
9.0657e-05
-0.100158
9.74356e-05
-0.0908722
9.828e-05
-0.0824503
9.29123e-05
-0.0748059
8.20951e-05
-0.0678822
6.72596e-05
-0.061596
5.00034e-05
-0.0558999
3.18448e-05
-0.0507321
1.4113e-05
-0.0460402
-2.15793e-06
-0.0417845
-1.63816e-05
-0.0379223
-2.8373e-05
-0.0344162
-3.81159e-05
-0.031234
-4.57482e-05
-0.0283462
-5.13701e-05
-0.0257248
-5.53052e-05
-0.023346
-5.78827e-05
-0.0211859
-5.96239e-05
-0.0192263
-6.17145e-05
-0.0174474
-6.18002e-05
-0.0158333
-7.1952e-05
-0.0143685
-5.77619e-05
-0.473385
-2.22841e-07
-0.429575
9.15874e-07
-0.389874
1.94891e-06
-0.353829
2.74129e-06
-0.321118
3.66152e-06
-0.291435
4.83988e-06
-0.264495
6.55031e-06
-0.240053
9.04661e-06
-0.21786
1.27359e-05
-0.197723
1.80876e-05
-0.179442
2.55606e-05
-0.162847
3.54955e-05
-0.147781
4.7861e-05
-0.134103
6.20543e-05
-0.12168
7.67362e-05
-0.110403
8.99098e-05
-0.100167
9.93191e-05
-0.090878
0.000103189
-0.0824527
0.000100668
-0.0748051
9.21333e-05
-0.0678789
7.88155e-05
-0.0615911
6.23181e-05
-0.055894
4.41672e-05
-0.050726
2.57243e-05
-0.0460343
8.19526e-06
-0.0417791
-7.53864e-06
-0.0379176
-2.10663e-05
-0.0344122
-3.23282e-05
-0.0312307
-4.13822e-05
-0.0283435
-4.84193e-05
-0.0257227
-5.35061e-05
-0.0233443
-5.70065e-05
-0.0211845
-5.92456e-05
-0.0192252
-6.07405e-05
-0.0174465
-6.26672e-05
-0.0158327
-6.23613e-05
-0.0143677
-7.27252e-05
-0.0130379
-5.72983e-05
-0.473386
-2.90504e-07
-0.429576
7.69079e-07
-0.389875
1.7065e-06
-0.35383
2.40342e-06
-0.321119
3.21902e-06
-0.291436
4.26065e-06
-0.264496
5.76736e-06
-0.240054
7.96733e-06
-0.217862
1.12485e-05
-0.197726
1.60612e-05
-0.179447
2.28934e-05
-0.162854
3.21672e-05
-0.14779
4.40251e-05
-0.134114
5.81296e-05
-0.121692
7.3413e-05
-0.110414
8.80954e-05
-0.100177
9.99168e-05
-0.0908854
0.000106734
-0.0824567
0.000107262
-0.0748058
0.000101325
-0.0678767
8.98929e-05
-0.0615868
7.4512e-05
-0.0558885
5.67898e-05
-0.0507199
3.80882e-05
-0.0460282
1.96175e-05
-0.0417734
2.4579e-06
-0.0379125
-1.26537e-05
-0.0344079
-2.54544e-05
-0.0312271
-3.59999e-05
-0.0283405
-4.43899e-05
-0.0257203
-5.08355e-05
-0.0233424
-5.54297e-05
-0.021183
-5.8548e-05
-0.0192239
-6.05007e-05
-0.0174454
-6.1777e-05
-0.0158319
-6.35139e-05
-0.0143672
-6.27857e-05
-0.0130373
-7.33965e-05
-0.0118305
-5.7222e-05
-0.473385
-3.47745e-07
-0.429577
6.34358e-07
-0.389876
1.48649e-06
-0.35383
2.10126e-06
-0.321119
2.82893e-06
-0.291436
3.74925e-06
-0.264497
5.07301e-06
-0.240056
7.00751e-06
-0.217864
9.91252e-06
-0.197729
1.42246e-05
-0.179452
2.04266e-05
-0.16286
2.90061e-05
-0.147798
4.02387e-05
-0.134124
5.40176e-05
-0.121703
6.9577e-05
-0.110426
8.53759e-05
-0.100188
9.92614e-05
-0.0908944
0.000108919
-0.0824626
0.000112549
-0.074808
0.000109517
-0.0678757
0.000100321
-0.0615833
8.63975e-05
-0.0558834
6.94292e-05
-0.050714
5.08893e-05
-0.046022
3.19305e-05
-0.0417674
1.36167e-05
-0.037907
-3.05445e-06
-0.034403
-1.74785e-05
-0.031223
-2.95366e-05
-0.0283372
-3.93705e-05
-0.0257175
-4.71224e-05
-0.0233401
-5.30423e-05
-0.0211812
-5.7186e-05
-0.0192225
-5.99702e-05
-0.0174442
-6.16836e-05
-0.0158309
-6.27486e-05
-0.0143665
-6.42207e-05
-0.013037
-6.29655e-05
-0.0118298
-7.40802e-05
-0.0107354
-5.75731e-05
-0.473386
-3.96994e-07
-0.429577
5.1341e-07
-0.389876
1.2905e-06
-0.35383
1.83588e-06
-0.32112
2.48487e-06
-0.291437
3.29908e-06
-0.264498
4.45862e-06
-0.240057
6.15561e-06
-0.217866
8.72147e-06
-0.197732
1.25653e-05
-0.179456
1.81701e-05
-0.162865
2.60425e-05
-0.147806
3.65727e-05
-0.134133
4.98424e-05
-0.121715
6.53662e-05
-0.110439
8.19104e-05
-0.1002
9.74786e-05
-0.0909048
0.000109712
-0.0824701
0.000116475
-0.074812
0.000116523
-0.0678761
0.000109933
-0.0615808
9.78023e-05
-0.0558789
8.18677e-05
-0.0507084
6.3779e-05
-0.0460159
4.47782e-05
-0.0417613
2.57962e-05
-0.0379012
7.79523e-06
-0.0343978
-8.30194e-06
-0.0312185
-2.20068e-05
-0.0283334
-3.33244e-05
-0.0257144
-4.24777e-05
-0.0233377
-4.96226e-05
-0.0211792
-5.50247e-05
-0.0192209
-5.87718e-05
-0.0174429
-6.12858e-05
-0.0158298
-6.27937e-05
-0.0143657
-6.35864e-05
-0.0130365
-6.46821e-05
-0.0118296
-6.30373e-05
-0.0107343
-7.52134e-05
-0.0097425
-5.8325e-05
-0.473385
-4.32705e-07
-0.429579
4.06896e-07
-0.389877
1.11785e-06
-0.353831
1.60549e-06
-0.32112
2.18473e-06
-0.291437
2.90186e-06
-0.264498
3.91686e-06
-0.240058
5.40178e-06
-0.217867
7.66271e-06
-0.197734
1.10786e-05
-0.179459
1.61137e-05
-0.162871
2.32978e-05
-0.147813
3.30761e-05
-0.134142
4.57024e-05
-0.121726
6.09358e-05
-0.110451
7.78502e-05
-0.100213
9.47154e-05
-0.0909166
0.000109197
-0.0824793
0.000118945
-0.0748178
0.000122243
-0.0678781
0.000118539
-0.0615794
0.000108606
-0.0558751
9.39959e-05
-0.0507031
7.65642e-05
-0.0460099
5.77893e-05
-0.0417551
3.86248e-05
-0.0378952
1.97974e-05
-0.0343922
2.20114e-06
-0.0312135
-1.32658e-05
-0.0283291
-2.62303e-05
-0.0257109
-3.68187e-05
-0.0233348
-4.53048e-05
-0.021177
-5.18754e-05
-0.0192191
-5.68352e-05
-0.0174415
-6.02433e-05
-0.0158285
-6.25361e-05
-0.0143646
-6.38179e-05
-0.0130359
-6.42068e-05
-0.0118294
-6.49118e-05
-0.010734
-6.32639e-05
-0.00974085
-7.68627e-05
-0.0088415
-5.77126e-05
-0.473386
-4.54356e-07
-0.429579
3.1699e-07
-0.389877
9.73464e-07
-0.353831
1.40828e-06
-0.32112
1.92414e-06
-0.291438
2.55269e-06
-0.264499
3.43821e-06
-0.240058
4.73731e-06
-0.217869
6.72493e-06
-0.197736
9.75204e-06
-0.179462
1.42585e-05
-0.162875
2.07704e-05
-0.147819
2.97913e-05
-0.134151
4.16735e-05
-0.121736
5.64118e-05
-0.110464
7.33682e-05
-0.100226
9.11114e-05
-0.0909293
0.000107481
-0.0824901
0.000119983
-0.0748253
0.000126526
-0.0678819
0.000126007
-0.0615795
0.000118613
-0.0558722
0.000105712
-0.0506982
8.91416e-05
-0.0460041
7.07109e-05
-0.0417489
5.16282e-05
-0.0378891
3.2533e-05
-0.0343864
1.39832e-05
-0.0312082
-3.12991e-06
-0.0283245
-1.79335e-05
-0.025707
-3.01598e-05
-0.0233316
-4.00374e-05
-0.0211744
-4.78956e-05
-0.019217
-5.39294e-05
-0.0174398
-5.84713e-05
-0.0158271
-6.16165e-05
-0.0143634
-6.37186e-05
-0.0130351
-6.46587e-05
-0.0118291
-6.45076e-05
-0.0107338
-6.51142e-05
-0.00973998
-6.40786e-05
-0.00884039
-7.80086e-05
-0.00801717
-5.13215e-05
-0.473385
-4.58367e-07
-0.42958
2.41847e-07
-0.389878
8.45537e-07
-0.353831
1.24296e-06
-0.321121
1.69683e-06
-0.291438
2.2471e-06
-0.264499
3.01735e-06
-0.240059
4.15109e-06
-0.21787
5.8979e-06
-0.197738
8.57303e-06
-0.179465
1.25926e-05
-0.162879
1.84689e-05
-0.147825
2.67264e-05
-0.134159
3.78223e-05
-0.121747
5.19009e-05
-0.110476
6.86203e-05
-0.10024
8.68529e-05
-0.0909429
0.000104681
-0.0825023
0.000119645
-0.0748347
0.000129328
-0.0678875
0.000132129
-0.0615812
0.00012768
-0.0558705
0.000116868
-0.050694
0.000101499
-0.0459984
8.35133e-05
-0.0417428
6.45477e-05
-0.0378829
4.54707e-05
-0.0343804
2.6611e-05
-0.0312026
8.4201e-06
-0.0283194
-8.17706e-06
-0.0257026
-2.23026e-05
-0.023328
-3.37963e-05
-0.0211714
-4.29869e-05
-0.0192147
-5.02345e-05
-0.017438
-5.5777e-05
-0.0158256
-6.00083e-05
-0.0143621
-6.29526e-05
-0.013034
-6.47862e-05
-0.0118286
-6.51834e-05
-0.0107337
-6.45895e-05
-0.00973934
-6.57468e-05
-0.00883878
-6.56284e-05
-0.0080227
-7.24661e-05
-0.00724912
-4.08299e-05
-0.473386
-4.47836e-07
-0.42958
1.80772e-07
-0.389878
7.31995e-07
-0.353832
1.096e-06
-0.321121
1.5e-06
-0.291438
1.97716e-06
-0.2645
2.64949e-06
-0.24006
3.63649e-06
-0.217871
5.16793e-06
-0.19774
7.53066e-06
-0.179468
1.11045e-05
-0.162883
1.63861e-05
-0.147831
2.39049e-05
-0.134166
3.41736e-05
-0.121756
4.74982e-05
-0.110488
6.37398e-05
-0.100253
8.2111e-05
-0.090957
0.000100974
-0.0825156
0.000118003
-0.0748457
0.000130646
-0.0678949
0.00013681
-0.0615846
0.00013557
-0.0558701
0.000127318
-0.0506907
0.000113517
-0.0459931
9.62237e-05
-0.0417366
7.73426e-05
-0.0378766
5.82407e-05
-0.0343744
3.94129e-05
-0.0311969
2.09081e-05
-0.0283141
3.12301e-06
-0.0256979
-1.29312e-05
-0.0233239
-2.63783e-05
-0.0211681
-3.71581e-05
-0.019212
-4.5684e-05
-0.0174358
-5.23671e-05
-0.0158239
-5.74896e-05
-0.0143606
-6.14735e-05
-0.0130327
-6.42192e-05
-0.0118278
-6.55835e-05
-0.0107335
-6.53354e-05
-0.00973905
-6.48539e-05
-0.0088374
-6.71154e-05
-0.00802279
-6.5489e-05
-0.00726307
-5.85416e-05
-0.00654244
-3.01464e-05
-0.473385
-4.3328e-07
-0.429581
1.30555e-07
-0.389879
6.22195e-07
-0.353832
9.62369e-07
-0.321121
1.323e-06
-0.291439
1.74137e-06
-0.2645
2.32519e-06
-0.24006
3.1876e-06
-0.217872
4.52678e-06
-0.197741
6.60832e-06
-0.17947
9.78253e-06
-0.162887
1.45121e-05
-0.147835
2.13254e-05
-0.134173
3.07694e-05
-0.121765
4.32509e-05
-0.110499
5.88573e-05
-0.100266
7.70472e-05
-0.0909714
9.6538e-05
-0.0825298
0.000115209
-0.0748582
0.00013049
-0.0679043
0.000139975
-0.06159
0.00014213
-0.0558713
0.000136804
-0.0506884
0.000125079
-0.0459884
0.00010882
-0.0417305
9.01683e-05
-0.0378701
7.08724e-05
-0.0343681
5.19699e-05
-0.031191
3.35711e-05
-0.0283087
1.54863e-05
-0.0256929
-1.87341e-06
-0.0233194
-1.73873e-05
-0.0211643
-3.01656e-05
-0.0192089
-4.02471e-05
-0.0174334
-4.81316e-05
-0.015822
-5.42923e-05
-0.014359
-5.91011e-05
-0.0130313
-6.29292e-05
-0.0118267
-6.53179e-05
-0.0107331
-6.59516e-05
-0.009739
-6.53798e-05
-0.00883636
-6.58642e-05
-0.0080216
-6.82984e-05
-0.00727144
-5.707e-05
-0.00655814
-4.28348e-05
-0.00589843
-2.03474e-05
-0.473385
-4.16787e-07
-0.429581
9.11639e-08
-0.389879
5.16524e-07
-0.353832
8.33278e-07
-0.321121
1.16264e-06
-0.291439
1.53059e-06
-0.2645
2.04291e-06
-0.240061
2.79253e-06
-0.217873
3.96715e-06
-0.197742
5.7966e-06
-0.179472
8.60818e-06
-0.16289
1.28373e-05
-0.14784
1.89843e-05
-0.134179
2.76205e-05
-0.121774
3.92254e-05
-0.11051
5.40427e-05
-0.100279
7.18222e-05
-0.0909859
9.15479e-05
-0.0825447
0.000111427
-0.0748719
0.000128968
-0.0679154
0.000141572
-0.0615972
0.000147232
-0.0558743
0.000145144
-0.0506875
0.000135926
-0.0459846
0.000121206
-0.0417248
0.000103057
-0.0378636
8.35711e-05
-0.0343615
6.42684e-05
-0.0311849
4.58249e-05
-0.0283031
2.79804e-05
-0.0256877
1.03597e-05
-0.0233147
-6.57453e-06
-0.0211601
-2.15533e-05
-0.0192054
-3.36755e-05
-0.0174306
-4.30718e-05
-0.0158197
-5.03485e-05
-0.0143572
-5.60977e-05
-0.0130297
-6.07082e-05
-0.0118253
-6.42903e-05
-0.0107325
-6.60125e-05
-0.009739
-6.59471e-05
-0.0088358
-6.59323e-05
-0.00801973
-6.77015e-05
-0.00727683
-6.28983e-05
-0.00657041
-4.47628e-05
-0.00591328
-2.80042e-05
-0.00531496
-1.20896e-05
-0.473385
-4.03742e-07
-0.429582
5.98236e-08
-0.38988
4.228e-07
-0.353832
7.07946e-07
-0.321122
1.01427e-06
-0.291439
1.34256e-06
-0.264501
1.79299e-06
-0.240061
2.4493e-06
-0.217873
3.47431e-06
-0.197743
5.08664e-06
-0.179474
7.57062e-06
-0.162892
1.13405e-05
-0.147844
1.6875e-05
-0.134185
2.47323e-05
-0.121782
3.54504e-05
-0.11052
4.93957e-05
-0.100292
6.6534e-05
-0.0910003
8.6194e-05
-0.08256
0.000106834
-0.0748867
0.000126212
-0.067928
0.000141644
-0.0616064
0.000150752
-0.0558793
0.000152158
-0.0506883
0.000145852
-0.0459818
0.000133131
-0.0417196
0.000115976
-0.037857
9.65123e-05
-0.0343546
7.66725e-05
-0.0311783
5.77101e-05
-0.0282972
3.99304e-05
-0.0256825
2.27179e-05
-0.0233099
5.5576e-06
-0.0211557
-1.09692e-05
-0.0192015
-2.54301e-05
-0.0174273
-3.6903e-05
-0.0158172
-4.56268e-05
-0.0143552
-5.23726e-05
-0.0130279
-5.78386e-05
-0.0118237
-6.22909e-05
-0.0107314
-6.53685e-05
-0.00973884
-6.61782e-05
-0.00883566
-6.60863e-05
-0.00801812
-6.75409e-05
-0.00727834
-6.61741e-05
-0.00658256
-5.07403e-05
-0.00592564
-3.23751e-05
-0.0053278
-1.5155e-05
-0.00478824
-5.44273e-06
-0.473385
-3.93666e-07
-0.429582
3.68313e-08
-0.38988
3.4119e-07
-0.353833
5.95386e-07
-0.321122
8.76896e-07
-0.291439
1.17341e-06
-0.264501
1.57251e-06
-0.240062
2.14664e-06
-0.217874
3.04606e-06
-0.197744
4.46032e-06
-0.179475
6.66034e-06
-0.162895
1.00112e-05
-0.147848
1.49764e-05
-0.13419
2.21056e-05
-0.121789
3.19448e-05
-0.110529
4.49664e-05
-0.100304
6.13169e-05
-0.0910144
8.05959e-05
-0.0825755
0.000101635
-0.0749023
0.000122382
-0.0679421
0.000140276
-0.0616174
0.00015267
-0.0558862
0.000157665
-0.0506907
0.000154648
-0.0459803
0.000144385
-0.0417151
0.000128687
-0.0378507
0.000109696
-0.0343475
8.94365e-05
-0.0311713
6.96391e-05
-0.0282908
5.12849e-05
-0.0256769
3.4309e-05
-0.023305
1.77732e-05
-0.0211512
1.07335e-06
-0.0191974
-1.50732e-05
-0.0174237
-2.90257e-05
-0.0158142
-3.98425e-05
-0.0143529
-4.79357e-05
-0.013026
-5.4287e-05
-0.011822
-5.96055e-05
-0.01073
-6.3728e-05
-0.00973834
-6.5868e-05
-0.00883576
-6.60839e-05
-0.00801703
-6.71674e-05
-0.00727726
-6.86121e-05
-0.0065928
-5.59153e-05
-0.00593871
-3.76696e-05
-0.0053389
-2.12602e-05
-0.00479866
-4.75588e-06
-0.00431394
-4.61685e-07
-0.473385
-3.83501e-07
-0.429583
1.9652e-08
-0.38988
2.76189e-07
-0.353833
4.9552e-07
-0.321122
7.54821e-07
-0.291439
1.02102e-06
-0.264501
1.37725e-06
-0.240062
1.88103e-06
-0.217874
2.66888e-06
-0.197745
3.91519e-06
-0.179477
5.85453e-06
-0.162897
8.83924e-06
-0.147851
1.32788e-05
-0.134195
1.97203e-05
-0.121795
2.87223e-05
-0.110538
4.07952e-05
-0.100315
5.62506e-05
-0.091028
7.49274e-05
-0.0825908
9.59676e-05
-0.0749183
0.000117681
-0.0679573
0.000137586
-0.0616301
0.000153001
-0.0558951
0.000161576
-0.0506952
0.000162088
-0.0459804
0.000154746
-0.0417117
0.000140975
-0.0378449
0.000122905
-0.0343405
0.000102652
-0.0311639
8.2061e-05
-0.0282838
6.26447e-05
-0.0256707
4.51172e-05
-0.0232997
2.90507e-05
-0.0211466
1.31974e-05
-0.0191932
-3.09434e-06
-0.0174199
-1.88874e-05
-0.015811
-3.23158e-05
-0.0143503
-4.24857e-05
-0.0130239
-5.00591e-05
-0.0118201
-5.6189e-05
-0.0107282
-6.13208e-05
-0.00973739
-6.46787e-05
-0.00883583
-6.57959e-05
-0.00801657
-6.65566e-05
-0.00727515
-6.92728e-05
-0.00659991
-6.14998e-05
-0.00595155
-4.30543e-05
-0.005351
-2.55567e-05
-0.00480793
-1.19725e-05
-0.00432191
3.21496e-06
-0.0038874
3.08594e-06
-0.473385
-3.71238e-07
-0.429583
8.29605e-09
-0.38988
2.25505e-07
-0.353833
4.12841e-07
-0.321122
6.47092e-07
-0.291439
8.86567e-07
-0.264501
1.20326e-06
-0.240062
1.6476e-06
-0.217875
2.33862e-06
-0.197746
3.43464e-06
-0.179478
5.15143e-06
-0.162899
7.79706e-06
-0.147854
1.17734e-05
-0.134199
1.75708e-05
-0.121802
2.57663e-05
-0.110546
3.69122e-05
-0.100326
5.13999e-05
-0.091041
6.92979e-05
-0.0826059
9.00386e-05
-0.0749346
0.000112252
-0.0679734
0.000133764
-0.0616444
0.000151812
-0.0559059
0.000163838
-0.0507016
0.000168028