/*--------------------------------*- C++ -*----------------------------------*\
  =========                 |
  \\      /  F ield         | OpenFOAM: The Open Source CFD Toolbox
   \\    /   O peration     | Website:  https://openfoam.org
    \\  /    A nd           | Version:  dev
     \\/     M anipulation  |
\*---------------------------------------------------------------------------*/
FoamFile
{
    version     2.0;
    format      ascii;
    class       volVectorField;
    location    "250";
    object      U;
}
// * * * * * * * * * * * * * * * * * * * * * * * * * * * * * * * * * * * * * //

dimensions      [0 1 -1 0 0 0 0];

internalField   nonuniform List<vector> 
29380
(
(51.053 0.0105672 0)
(51.0537 0.0104168 0)
(51.0554 0.00253404 0)
(51.0541 0.0104253 0)
(51.0551 0.00258087 0)
(51.0604 0.00849235 0)
(51.0545 0.0104178 0)
(51.0551 0.00272221 0)
(51.0604 0.00832148 0)
(51.0672 0.00402531 0)
(51.0549 0.0103961 0)
(51.055 0.00293686 0)
(51.0604 0.00832417 0)
(51.0666 0.0040631 0)
(51.0713 0.00642032 0)
(51.0553 0.0103367 0)
(51.055 0.00318129 0)
(51.0603 0.00839338 0)
(51.0663 0.0042585 0)
(51.0707 0.00632958 0)
(51.0778 0.00404005 0)
(51.0558 0.0102378 0)
(51.0551 0.00343908 0)
(51.0604 0.0085161 0)
(51.066 0.00460029 0)
(51.0703 0.00645971 0)
(51.0767 0.00413323 0)
(51.0817 0.00450437 0)
(51.0562 0.0100967 0)
(51.0552 0.00369418 0)
(51.0605 0.00866973 0)
(51.0658 0.0050372 0)
(51.07 0.00673653 0)
(51.0762 0.00441561 0)
(51.0805 0.00451792 0)
(51.0868 0.00311476 0)
(51.0567 0.00991884 0)
(51.0554 0.00394437 0)
(51.0607 0.0088264 0)
(51.0658 0.00553646 0)
(51.0697 0.00712798 0)
(51.0755 0.00488812 0)
(51.0797 0.00476692 0)
(51.0852 0.00323395 0)
(51.0904 0.00267752 0)
(51.0571 0.00970063 0)
(51.0556 0.00418253 0)
(51.061 0.00896789 0)
(51.0659 0.00605916 0)
(51.0696 0.00759785 0)
(51.0751 0.00548969 0)
(51.0789 0.00521939 0)
(51.0843 0.00356567 0)
(51.0887 0.0027501 0)
(51.0944 0.00170684 0)
(51.0576 0.00943985 0)
(51.0559 0.00440626 0)
(51.0614 0.00907241 0)
(51.066 0.00656219 0)
(51.0696 0.00810459 0)
(51.0748 0.00618954 0)
(51.0783 0.00583236 0)
(51.0832 0.00412969 0)
(51.0875 0.00306224 0)
(51.0924 0.00182563 0)
(51.0976 0.000928518 0)
(51.058 0.00912487 0)
(51.0562 0.00460194 0)
(51.0618 0.00913153 0)
(51.0663 0.00701505 0)
(51.0697 0.00861139 0)
(51.0746 0.00694428 0)
(51.0778 0.00657437 0)
(51.0824 0.0048739 0)
(51.0863 0.00361921 0)
(51.0911 0.00216675 0)
(51.0954 0.00101682 0)
(51.1007 0.00014622 0)
(51.0584 0.00875134 0)
(51.0565 0.00476052 0)
(51.0623 0.00913813 0)
(51.0666 0.00739209 0)
(51.07 0.00908375 0)
(51.0746 0.00771666 0)
(51.0775 0.00740753 0)
(51.0817 0.00577626 0)
(51.0853 0.00438334 0)
(51.0896 0.00276509 0)
(51.094 0.00133411 0)
(51.0983 0.000239474 0)
(51.1034 -0.000696351 0)
(51.0589 0.00831614 0)
(51.0568 0.00486594 0)
(51.0627 0.00909782 0)
(51.067 0.00769055 0)
(51.0703 0.00950007 0)
(51.0747 0.00847098 0)
(51.0774 0.00829389 0)
(51.0812 0.00680137 0)
(51.0844 0.00533905 0)
(51.0884 0.00358691 0)
(51.0923 0.00190969 0)
(51.0968 0.000546108 0)
(51.1009 -0.000630817 0)
(51.1059 -0.00137603 0)
(51.0592 0.00783091 0)
(51.0571 0.00491419 0)
(51.0631 0.00901501 0)
(51.0674 0.00791345 0)
(51.0707 0.00984575 0)
(51.075 0.00917939 0)
(51.0774 0.00919639 0)
(51.0809 0.00791487 0)
(51.0837 0.00645895 0)
(51.0873 0.0046277 0)
(51.0909 0.00272359 0)
(51.0949 0.00110718 0)
(51.0992 -0.000358347 0)
(51.1033 -0.00132859 0)
(51.1081 -0.00215485 0)
(51.0596 0.00731143 0)
(51.0574 0.00490116 0)
(51.0635 0.00889883 0)
(51.0678 0.00807842 0)
(51.0712 0.01012 0)
(51.0754 0.00982094 0)
(51.0776 0.0100791 0)
(51.0808 0.00907653 0)
(51.0832 0.00771201 0)
(51.0863 0.00586903 0)
(51.0895 0.00378136 0)
(51.0933 0.00191263 0)
(51.0973 0.000156118 0)
(51.1015 -0.00108846 0)
(51.1054 -0.00213834 0)
(51.11 -0.00275661 0)
(51.0599 0.00678227 0)
(51.0577 0.00483719 0)
(51.064 0.0087514 0)
(51.0683 0.00819546 0)
(51.0717 0.0103234 0)
(51.0759 0.0103827 0)
(51.078 0.0109113 0)
(51.0809 0.0102477 0)
(51.0829 0.00906169 0)
(51.0856 0.00728864 0)
(51.0883 0.00507628 0)
(51.0917 0.00297949 0)
(51.0954 0.00091635 0)
(51.0994 -0.000624556 0)
(51.1035 -0.00193834 0)
(51.1072 -0.00277277 0)
(51.1117 -0.00342181 0)
(51.0602 0.0062619 0)
(51.0581 0.00473067 0)
(51.0644 0.00857454 0)
(51.0687 0.00827542 0)
(51.0723 0.0104632 0)
(51.0764 0.0108564 0)
(51.0785 0.0116665 0)
(51.0812 0.0113872 0)
(51.0828 0.010464 0)
(51.085 0.008854 0)
(51.0873 0.00659626 0)
(51.0902 0.00431373 0)
(51.0936 0.00194956 0)
(51.0974 7.9654e-05 0)
(51.1013 -0.00153911 0)
(51.1052 -0.00261211 0)
(51.1088 -0.00347736 0)
(51.1131 -0.00394157 0)
(51.0605 0.00576615 0)
(51.0584 0.0045984 0)
(51.0648 0.00836515 0)
(51.0692 0.00831514 0)
(51.0729 0.0105406 0)
(51.0771 0.0112378 0)
(51.0792 0.0123245 0)
(51.0817 0.0124601 0)
(51.083 0.0118753 0)
(51.0848 0.0105249 0)
(51.0865 0.00831816 0)
(51.0889 0.00591659 0)
(51.0919 0.0032752 0)
(51.0953 0.00106012 0)
(51.0991 -0.000909291 0)
(51.1029 -0.00228231 0)
(51.1068 -0.00335655 0)
(51.1102 -0.00404412 0)
(51.1144 -0.00448489 0)
(51.0608 0.00529966 0)
(51.0587 0.00445031 0)
(51.0652 0.0081239 0)
(51.0696 0.00831349 0)
(51.0734 0.0105596 0)
(51.0777 0.0115236 0)
(51.0799 0.0128702 0)
(51.0824 0.0134334 0)
(51.0835 0.0132478 0)
(51.0848 0.0122533 0)
(51.086 0.0102079 0)
(51.0878 0.00777675 0)
(51.0903 0.0049081 0)
(51.0934 0.00234929 0)
(51.0969 -6.43746e-06 0)
(51.1006 -0.00173563 0)
(51.1044 -0.00310181 0)
(51.1081 -0.00396033 0)
(51.1114 -0.00464012 0)
(51.1153 -0.00491812 0)
(51.061 0.00486463 0)
(51.059 0.00430066 0)
(51.0656 0.00785297 0)
(51.07 0.00826364 0)
(51.074 0.0105183 0)
(51.0784 0.0117133 0)
(51.0807 0.0132952 0)
(51.0832 0.0142833 0)
(51.0841 0.0145406 0)
(51.0851 0.0139879 0)
(51.0857 0.0122199 0)
(51.087 0.00987016 0)
(51.0888 0.00685159 0)
(51.0915 0.0039762 0)
(51.0947 0.00121379 0)
(51.0983 -0.000926112 0)
(51.102 -0.00264607 0)
(51.1057 -0.00378341 0)
(51.1093 -0.00458848 0)
(51.1123 -0.00513612 0)
(51.1161 -0.00534634 0)
(51.0612 0.00445686 0)
(51.0593 0.00415515 0)
(51.0659 0.00756025 0)
(51.0704 0.00816771 0)
(51.0745 0.0104199 0)
(51.0791 0.0118079 0)
(51.0815 0.013596 0)
(51.0841 0.0149911 0)
(51.085 0.0157141 0)
(51.0857 0.0156756 0)
(51.0858 0.0143014 0)
(51.0864 0.012159 0)
(51.0877 0.00909466 0)
(51.0897 0.00595915 0)
(51.0925 0.00279343 0)
(51.0959 0.000201422 0)
(51.0995 -0.00194263 0)
(51.1032 -0.00342251 0)
(51.1068 -0.00449004 0)
(51.1102 -0.00511054 0)
(51.1131 -0.0056347 0)
(51.1167 -0.00569267 0)
(51.0614 0.00407228 0)
(51.0596 0.00402127 0)
(51.0663 0.00725367 0)
(51.0707 0.00802567 0)
(51.075 0.0102656 0)
(51.0797 0.0118125 0)
(51.0824 0.0137751 0)
(51.0851 0.0155485 0)
(51.086 0.0167406 0)
(51.0865 0.0172674 0)
(51.0863 0.016393 0)
(51.0863 0.0145925 0)
(51.0867 0.0116105 0)
(51.0881 0.00830311 0)
(51.0904 0.00476636 0)
(51.0934 0.00170079 0)
(51.0969 -0.000926781 0)
(51.1006 -0.00283367 0)
(51.1042 -0.00422457 0)
(51.1077 -0.00509094 0)
(51.111 -0.00562719 0)
(51.1137 -0.00606361 0)
(51.117 -0.00601635 0)
(51.0616 0.00370043 0)
(51.0598 0.00389533 0)
(51.0666 0.00694159 0)
(51.0711 0.00784401 0)
(51.0755 0.0100627 0)
(51.0803 0.011735 0)
(51.0832 0.0138397 0)
(51.0862 0.0159525 0)
(51.0872 0.0175974 0)
(51.0876 0.0187187 0)
(51.087 0.0184347 0)
(51.0865 0.0171102 0)
(51.0862 0.0143569 0)
(51.0868 0.0109963 0)
(51.0884 0.00715375 0)
(51.091 0.00362003 0)
(51.0942 0.000465144 0)
(51.0978 -0.00194351 0)
(51.1015 -0.00375424 0)
(51.1051 -0.00492035 0)
(51.1084 -0.00568441 0)
(51.1115 -0.00606648 0)
(51.1141 -0.00647859 0)
(51.1172 -0.00627913 0)
(51.0617 0.00332935 0)
(51.0601 0.00377232 0)
(51.0669 0.00662868 0)
(51.0714 0.00762462 0)
(51.0759 0.00981643 0)
(51.0809 0.0115871 0)
(51.084 0.013801 0)
(51.0872 0.0162085 0)
(51.0884 0.0182748 0)
(51.0889 0.0199953 0)
(51.0881 0.0203684 0)
(51.087 0.0196445 0)
(51.0861 0.0172765 0)
(51.0858 0.0140091 0)
(51.0867 0.00996104 0)
(51.0886 0.00599704 0)
(51.0914 0.0022942 0)
(51.0948 -0.000680512 0)
(51.0986 -0.00299799 0)
(51.1022 -0.00457089 0)
(51.1058 -0.00560438 0)
(51.109 -0.00620008 0)
(51.1119 -0.00648239 0)
(51.1143 -0.00684492 0)
(51.1172 -0.00651337 0)
(51.0619 0.00294214 0)
(51.0603 0.00363688 0)
(51.0671 0.00631953 0)
(51.0717 0.00737587 0)
(51.0763 0.00953702 0)
(51.0815 0.0113815 0)
(51.0848 0.013672 0)
(51.0883 0.0163253 0)
(51.0897 0.0187683 0)
(51.0904 0.0210709 0)
(51.0895 0.0221428 0)
(51.088 0.0221262 0)
(51.0864 0.020301 0)
(51.0853 0.0172944 0)
(51.0853 0.0131757 0)
(51.0864 0.00885526 0)
(51.0887 0.00461309 0)
(51.0918 0.00102701 0)
(51.0954 -0.00187829 0)
(51.0992 -0.00395428 0)
(51.1029 -0.00537304 0)
(51.1063 -0.00620772 0)
(51.1094 -0.00669008 0)
(51.1122 -0.0068406 0)
(51.1144 -0.00719261 0)
(51.1171 -0.00670194 0)
(51.062 0.0025285 0)
(51.0605 0.00347718 0)
(51.0673 0.00601798 0)
(51.0719 0.00710686 0)
(51.0767 0.0092333 0)
(51.082 0.0111318 0)
(51.0856 0.0134668 0)
(51.0893 0.0163161 0)
(51.0911 0.0190836 0)
(51.092 0.0219314 0)
(51.0911 0.0237148 0)
(51.0894 0.0244873 0)
(51.0871 0.023353 0)
(51.0852 0.0207881 0)
(51.0842 0.0167652 0)
(51.0845 0.0122011 0)
(51.0861 0.00746279 0)
(51.0887 0.00324517 0)
(51.0921 -0.000314498 0)
(51.0959 -0.00298876 0)
(51.0997 -0.00489547 0)
(51.1034 -0.00609276 0)
(51.1067 -0.00678029 0)
(51.1096 -0.00712084 0)
(51.1122 -0.00717093 0)
(51.1143 -0.00750581 0)
(51.1168 -0.00686118 0)
(51.0621 0.00208621 0)
(51.0607 0.00328188 0)
(51.0675 0.00573037 0)
(51.0722 0.00683716 0)
(51.077 0.00891925 0)
(51.0824 0.0108505 0)
(51.0863 0.013199 0)
(51.0903 0.016195 0)
(51.0924 0.0192295 0)
(51.0936 0.0225709 0)
(51.0929 0.0250528 0)
(51.0911 0.0266672 0)
(51.0883 0.0263536 0)
(51.0856 0.0244135 0)
(51.0836 0.0206775 0)
(51.0829 0.0160213 0)
(51.0836 0.0108697 0)
(51.0857 0.00603068 0)
(51.0887 0.0017702 0)
(51.0924 -0.00158698 0)
(51.0963 -0.00408746 0)
(51.1001 -0.00575341 0)
(51.1037 -0.00677738 0)
(51.1069 -0.00728908 0)
(51.1097 -0.00752119 0)
(51.1122 -0.00745827 0)
(51.1141 -0.00779878 0)
(51.1164 -0.00698614 0)
(51.0622 0.00162699 0)
(51.0608 0.00305269 0)
(51.0677 0.00546108 0)
(51.0724 0.00658659 0)
(51.0773 0.00860725 0)
(51.0829 0.0105495 0)
(51.0869 0.0128813 0)
(51.0912 0.0159772 0)
(51.0937 0.019221 0)
(51.0953 0.0229931 0)
(51.0949 0.0261362 0)
(51.0931 0.0286139 0)
(51.09 0.0292238 0)
(51.0866 0.0280833 0)
(51.0836 0.0248417 0)
(51.0817 0.0202803 0)
(51.0815 0.014841 0)
(51.0827 0.00942867 0)
(51.0853 0.00444607 0)
(51.0887 0.000336619 0)
(51.0926 -0.00285684 0)
(51.0966 -0.00510437 0)
(51.1004 -0.00657254 0)
(51.1039 -0.00739391 0)
(51.107 -0.00776149 0)
(51.1097 -0.00787685 0)
(51.112 -0.00771759 0)
(51.1137 -0.00806619 0)
(51.1158 -0.0070864 0)
(51.0623 0.00116842 0)
(51.061 0.0027958 0)
(51.0679 0.00521073 0)
(51.0726 0.0063735 0)
(51.0776 0.0083108 0)
(51.0832 0.0102384 0)
(51.0875 0.0125254 0)
(51.0921 0.0156778 0)
(51.095 0.0190736 0)
(51.097 0.0232078 0)
(51.097 0.0269559 0)
(51.0953 0.030288 0)
(51.0921 0.0318923 0)
(51.0881 0.0317072 0)
(51.0841 0.0291721 0)
(51.0811 0.0249206 0)
(51.0797 0.0193622 0)
(51.08 0.0134683 0)
(51.0818 0.00777566 0)
(51.0849 0.00286325 0)
(51.0886 -0.00111209 0)
(51.0927 -0.00405048 0)
(51.0968 -0.0060802 0)
(51.1006 -0.00731906 0)
(51.104 -0.00796776 0)
(51.107 -0.00818419 0)
(51.1095 -0.0082028 0)
(51.1116 -0.00794382 0)
(51.1132 -0.00831587 0)
(51.1151 -0.00716184 0)
(51.0624 0.000725984 0)
(51.0612 0.0025269 0)
(51.068 0.00497267 0)
(51.0728 0.00620005 0)
(51.0779 0.00803532 0)
(51.0836 0.00992466 0)
(51.088 0.0121418 0)
(51.0929 0.0153119 0)
(51.0962 0.0188063 0)
(51.0986 0.0232312 0)
(51.0991 0.027513 0)
(51.0977 0.0316626 0)
(51.0945 0.0342967 0)
(51.0901 0.035194 0)
(51.0853 0.0335711 0)
(51.0811 0.0298648 0)
(51.0784 0.0243943 0)
(51.0776 0.0181574 0)
(51.0785 0.0118085 0)
(51.081 0.00607034 0)
(51.0845 0.00123638 0)
(51.0885 -0.00249596 0)
(51.0928 -0.0052033 0)
(51.0969 -0.00697956 0)
(51.1007 -0.00801613 0)
(51.104 -0.00848606 0)
(51.1068 -0.00857242 0)
(51.1092 -0.00849331 0)
(51.1111 -0.00814621 0)
(51.1125 -0.00854588 0)
(51.1142 -0.00721843 0)
(51.0624 0.000303082 0)
(51.0613 0.00225709 0)
(51.0682 0.00473667 0)
(51.073 0.00605629 0)
(51.0781 0.00778009 0)
(51.0839 0.00961099 0)
(51.0885 0.0117397 0)
(51.0936 0.0148934 0)
(51.0973 0.018437 0)
(51.1002 0.023082 0)
(51.1012 0.0278178 0)
(51.1003 0.0327243 0)
(51.0973 0.0363882 0)
(51.0926 0.0384602 0)
(51.0871 0.0379361 0)
(51.0818 0.0350176 0)
(51.0778 0.0298747 0)
(51.0756 0.0234795 0)
(51.0754 0.0165759 0)
(51.0771 0.0100267 0)
(51.0801 0.00427875 0)
(51.0841 -0.000345742 0)
(51.0884 -0.00384385 0)
(51.0927 -0.00627755 0)
(51.0969 -0.00782275 0)
(51.1006 -0.00865047 0)
(51.1038 -0.00896419 0)
(51.1065 -0.00892002 0)
(51.1087 -0.00875808 0)
(51.1104 -0.00832307 0)
(51.1117 -0.00876203 0)
(51.1133 -0.00725725 0)
(51.0625 -0.00010607 0)
(51.0615 0.00199802 0)
(51.0683 0.00449421 0)
(51.0731 0.00591862 0)
(51.0783 0.007535 0)
(51.0841 0.00929652 0)
(51.0889 0.0113265 0)
(51.0943 0.0144358 0)
(51.0983 0.0179847 0)
(51.1018 0.0227826 0)
(51.1033 0.0278876 0)
(51.1029 0.0334721 0)
(51.1002 0.0381321 0)
(51.0955 0.0414304 0)
(51.0895 0.0421627 0)
(51.0832 0.0402713 0)
(51.0778 0.0357191 0)
(51.0742 0.0293925 0)
(51.0727 0.0220851 0)
(51.0734 0.014786 0)
(51.0758 0.00810044 0)
(51.0794 0.00249984 0)
(51.0836 -0.00190377 0)
(51.0882 -0.00511402 0)
(51.0926 -0.00728999 0)
(51.0967 -0.00859544 0)
(51.1004 -0.00923757 0)
(51.1035 -0.00939537 0)
(51.106 -0.00923726 0)
(51.108 -0.00899471 0)
(51.1095 -0.00848218 0)
(51.1108 -0.00896298 0)
(51.1122 -0.00728159 0)
(51.0625 -0.000511085 0)
(51.0616 0.00175517 0)
(51.0685 0.00424531 0)
(51.0733 0.00576891 0)
(51.0785 0.00728779 0)
(51.0844 0.00897711 0)
(51.0893 0.0109073 0)
(51.0949 0.0139506 0)
(51.0992 0.0174666 0)
(51.1032 0.0223552 0)
(51.1053 0.0277454 0)
(51.1056 0.0339162 0)
(51.1033 0.0395094 0)
(51.0988 0.0440449 0)
(51.0925 0.0461525 0)
(51.0853 0.04551 0)
(51.0786 0.0418247 0)
(51.0735 0.0358296 0)
(51.0705 0.0283171 0)
(51.0699 0.0203798 0)
(51.0714 0.0127768 0)
(51.0745 0.00614052 0)
(51.0786 0.000723865 0)
(51.0832 -0.0033902 0)
(51.0879 -0.00631931 0)
(51.0924 -0.00822441 0)
(51.0965 -0.00931246 0)
(51.1001 -0.00977004 0)
(51.103 -0.00979026 0)
(51.1054 -0.00952149 0)
(51.1072 -0.00921153 0)
(51.1086 -0.00862318 0)
(51.1098 -0.00915321 0)
(51.1111 -0.00729126 0)
(51.0625 -0.000915607 0)
(51.0618 0.00153462 0)
(51.0686 0.00399753 0)
(51.0734 0.00559676 0)
(51.0786 0.00702775 0)
(51.0846 0.00864901 0)
(51.0896 0.0104855 0)
(51.0954 0.0134475 0)
(51.1001 0.0168992 0)
(51.1045 0.021823 0)
(51.1072 0.0274174 0)
(51.1082 0.0340758 0)
(51.1066 0.0405156 0)
(51.1024 0.0462588 0)
(51.0959 0.0498159 0)
(51.0881 0.0506151 0)
(51.0802 0.0480737 0)
(51.0735 0.0427024 0)
(51.0689 0.0352274 0)
(51.0669 0.0268128 0)
(51.0672 0.0183624 0)
(51.0696 0.0106708 0)
(51.0733 0.00414955 0)
(51.0779 -0.000994739 0)
(51.0828 -0.00481329 0)
(51.0876 -0.00744026 0)
(51.0921 -0.00909415 0)
(51.0961 -0.0099664 0)
(51.0996 -0.0102589 0)
(51.1024 -0.0101459 0)
(51.1045 -0.00978135 0)
(51.1062 -0.00940779 0)
(51.1075 -0.00875275 0)
(51.1087 -0.00933103 0)
(51.1098 -0.00728521 0)
(51.0626 -0.00131434 0)
(51.0619 0.00133721 0)
(51.0687 0.00376078 0)
(51.0735 0.00540537 0)
(51.0787 0.00675156 0)
(51.0847 0.0083114 0)
(51.0899 0.0100634 0)
(51.0959 0.0129345 0)
(51.1009 0.0162966 0)
(51.1057 0.0212071 0)
(51.109 0.0269312 0)
(51.1107 0.0339767 0)
(51.1098 0.0411598 0)
(51.1062 0.0480461 0)
(51.0999 0.0530793 0)
(51.0916 0.0554716 0)
(51.0826 0.0543377 0)
(51.0744 0.0499026 0)
(51.0681 0.0427487 0)
(51.0644 0.0340638 0)
(51.0633 0.024885 0)
(51.0647 0.0161674 0)
(51.0678 0.00848516 0)
(51.0722 0.00219129 0)
(51.0772 -0.00265748 0)
(51.0823 -0.00614891 0)
(51.0872 -0.00848794 0)
(51.0917 -0.00989187 0)
(51.0956 -0.0105677 0)
(51.0989 -0.0107009 0)
(51.1015 -0.010471 0)
(51.1035 -0.0100163 0)
(51.1051 -0.00959077 0)
(51.1064 -0.00887064 0)
(51.1076 -0.0094973 0)
(51.1081 -0.00726196 0)
(51.0626 -0.0016954 0)
(51.062 0.00116325 0)
(51.0689 0.00354002 0)
(51.0736 0.00520019 0)
(51.0788 0.00646091 0)
(51.0849 0.00796812 0)
(51.0901 0.00964335 0)
(51.0963 0.0124177 0)
(51.1016 0.0156712 0)
(51.1068 0.0205279 0)
(51.1107 0.0263144 0)
(51.1131 0.0336492 0)
(51.113 0.0414616 0)
(51.1101 0.0493968 0)
(51.1042 0.0558858 0)
(51.0957 0.0599737 0)
(51.0859 0.0604823 0)
(51.0762 0.0573035 0)
(51.0681 0.0507925 0)
(51.0625 0.0420901 0)
(51.0599 0.032345 0)
(51.06 0.0226786 0)
(51.0623 0.0138276 0)
(51.0662 0.00629453 0)
(51.0712 0.000272515 0)
(51.0765 -0.00423498 0)
(51.0818 -0.00740495 0)
(51.0867 -0.00945447 0)
(51.0912 -0.010627 0)
(51.095 -0.0111138 0)
(51.0981 -0.0111047 0)
(51.1005 -0.0107648 0)
(51.1024 -0.0102339 0)
(51.104 -0.00976025 0)
(51.1053 -0.0089799 0)
(51.1064 -0.0096476 0)
(51.1057 -0.00721914 0)
(51.0626 -0.00205559 0)
(51.0621 0.00100318 0)
(51.069 0.0033311 0)
(51.0737 0.0049876 0)
(51.0789 0.00616202 0)
(51.085 0.00762584 0)
(51.0904 0.00922839 0)
(51.0967 0.0119018 0)
(51.1022 0.015033 0)
(51.1078 0.0198029 0)
(51.1123 0.0255933 0)
(51.1154 0.0331254 0)
(51.1162 0.0414493 0)
(51.1141 0.0503182 0)
(51.1087 0.0582001 0)
(51.1004 0.0640313 0)
(51.0899 0.0663745 0)
(51.0789 0.0647635 0)
(51.069 0.0592474 0)
(51.0615 0.0508304 0)
(51.057 0.0407242 0)
(51.0556 0.0302231 0)
(51.0569 0.0202435 0)
(51.0601 0.0114313 0)
(51.0648 0.00411693 0)
(51.0702 -0.0015703 0)
(51.0758 -0.00572978 0)
(51.0812 -0.00857193 0)
(51.0861 -0.010348 0)
(51.0905 -0.0112975 0)
(51.0941 -0.0116123 0)
(51.097 -0.0114692 0)
(51.0993 -0.0110348 0)
(51.1011 -0.0104349 0)
(51.1028 -0.00992078 0)
(51.1041 -0.0090772 0)
(51.1045 -0.00977523 0)
(51.1024 -0.00716933 0)
(51.0626 -0.00239113 0)
(51.0623 0.000844308 0)
(51.069 0.00312113 0)
(51.0738 0.00476596 0)
(51.079 0.00586114 0)
(51.0851 0.0072917 0)
(51.0906 0.00882182 0)
(51.097 0.0113906 0)
(51.1027 0.0143906 0)
(51.1088 0.019048 0)
(51.1137 0.0247924 0)
(51.1176 0.0324378 0)
(51.1192 0.0411569 0)
(51.1181 0.0508295 0)
(51.1135 0.0600052 0)
(51.1054 0.0675743 0)
(51.0947 0.0718898 0)
(51.0826 0.0721311 0)
(51.071 0.0679789 0)
(51.0614 0.0602007 0)
(51.0549 0.0499917 0)
(51.0517 0.0388026 0)
(51.0516 0.0277644 0)
(51.0539 0.0176845 0)
(51.0581 0.00901018 0)
(51.0634 0.00199701 0)
(51.0692 -0.00333297 0)
(51.075 -0.00713016 0)
(51.0805 -0.00965647 0)
(51.0854 -0.0111666 0)
(51.0896 -0.0119104 0)
(51.0931 -0.0120628 0)
(51.0958 -0.0118019 0)
(51.098 -0.0112823 0)
(51.0999 -0.010625 0)
(51.1018 -0.0100701 0)
(51.1026 -0.00915477 0)
(51.1014 -0.00987718 0)
(51.099 -0.00713316 0)
(51.0626 -0.00271704 0)
(51.0624 0.000676412 0)
(51.0691 0.00290205 0)
(51.0739 0.00453493 0)
(51.0791 0.00556456 0)
(51.0853 0.00697072 0)
(51.0907 0.00842634 0)
(51.0973 0.0108871 0)
(51.1032 0.0137507 0)
(51.1096 0.0182762 0)
(51.115 0.0239334 0)
(51.1196 0.0316179 0)
(51.1221 0.0406217 0)
(51.1219 0.0509621 0)
(51.1183 0.0613047 0)
(51.1109 0.0705542 0)
(51.1001 0.0769195 0)
(51.0872 0.0792528 0)
(51.074 0.0768303 0)
(51.0624 0.070088 0)
(51.0536 0.0600994 0)
(51.0484 0.0484166 0)
(51.0467 0.0364056 0)
(51.0479 0.025093 0)
(51.0512 0.0150509 0)
(51.0562 0.00662029 0)
(51.062 -5.17765e-05 0)
(51.0682 -0.00499961 0)
(51.0742 -0.00843988 0)
(51.0797 -0.0106557 0)
(51.0846 -0.011917 0)
(51.0886 -0.0124654 0)
(51.0918 -0.0124717 0)
(51.0944 -0.0121042 0)
(51.0966 -0.0115145 0)
(51.0987 -0.0108046 0)
(51.1006 -0.0102022 0)
(51.1001 -0.0092023 0)
(51.0969 -0.00996155 0)
(51.098 -0.00714585 0)
(51.0626 -0.00304482 0)
(51.0625 0.000491873 0)
(51.0692 0.00266799 0)
(51.0739 0.0043026 0)
(51.0792 0.00527893 0)
(51.0853 0.0066653 0)
(51.0909 0.00804371 0)
(51.0975 0.010394 0)
(51.1037 0.0131187 0)
(51.1103 0.0174989 0)
(51.1162 0.0230355 0)
(51.1214 0.0306955 0)
(51.1248 0.039882 0)
(51.1257 0.0507536 0)
(51.1231 0.0621173 0)
(51.1165 0.0729465 0)
(51.1061 0.0813753 0)
(51.0927 0.0859822 0)
(51.0782 0.0856311 0)
(51.0644 0.0803481 0)
(51.0533 0.0709705 0)
(51.0459 0.0590577 0)
(51.0423 0.0461911 0)
(51.042 0.033676 0)
(51.0444 0.0222796 0)
(51.0487 0.0124134 0)
(51.0544 0.00428572 0)
(51.0607 -0.00200816 0)
(51.0672 -0.00657024 0)
(51.0733 -0.00965483 0)
(51.0788 -0.0115765 0)
(51.0835 -0.0125991 0)
(51.0874 -0.0129687 0)
(51.0904 -0.0128414 0)
(51.0929 -0.0123842 0)
(51.0954 -0.0117341 0)
(51.0978 -0.0109698 0)
(51.0988 -0.0103041 0)
(51.0958 -0.00921529 0)
(51.0929 -0.0100657 0)
(51.102 -0.00723281 0)
(51.0626 -0.00335585 0)
(51.0626 0.000294247 0)
(51.0693 0.00243006 0)
(51.074 0.00407571 0)
(51.0792 0.00501401 0)
(51.0854 0.00637588 0)
(51.091 0.0076744 0)
(51.0978 0.00991349 0)
(51.104 0.0124989 0)
(51.1109 0.0167248 0)
(51.1173 0.0221151 0)
(51.1231 0.0296973 0)
(51.1273 0.0389757 0)
(51.1293 0.0502475 0)
(51.1278 0.0624762 0)
(51.1223 0.0747484 0)
(51.1125 0.0851945 0)
(51.099 0.0921874 0)
(51.0834 0.094204 0)
(51.0677 0.0908082 0)
(51.0542 0.0824892 0)
(51.0442 0.070696 0)
(51.0384 0.0571559 0)
(51.0364 0.0434741 0)
(51.0377 0.0307091 0)
(51.0412 0.0194143 0)
(51.0464 0.00981009 0)
(51.0526 0.00203593 0)
(51.0594 -0.00386673 0)
(51.0661 -0.0080384 0)
(51.0723 -0.0107811 0)
(51.0778 -0.0124182 0)
(51.0823 -0.0132189 0)
(51.086 -0.0134226 0)
(51.0889 -0.0131793 0)
(51.0915 -0.0126471 0)
(51.0944 -0.0119418 0)
(51.0966 -0.0111084 0)
(51.0951 -0.0103613 0)
(51.0904 -0.00922039 0)
(51.0935 -0.010232 0)
(51.1016 -0.00737738 0)
(51.0626 -0.00364257 0)
(51.0626 0.000107029 0)
(51.0694 0.00220316 0)
(51.074 0.00387516 0)
(51.0793 0.00477313 0)
(51.0855 0.00610324 0)
(51.0911 0.0073188 0)
(51.0979 0.00944794 0)
(51.1044 0.0118951 0)
(51.1115 0.0159616 0)
(51.1182 0.0211861 0)
(51.1246 0.0286473 0)
(51.1297 0.0379384 0)
(51.1326 0.0494882 0)
(51.1324 0.0624232 0)
(51.1281 0.0759772 0)
(51.1191 0.0883407 0)
(51.1059 0.09776 0)
(51.0896 0.102377 0)
(51.0723 0.101275 0)
(51.0563 0.0944999 0)
(51.0436 0.0832596 0)
(51.0352 0.0693235 0)
(51.0313 0.0545605 0)
(51.031 0.0403846 0)
(51.0337 0.0276184 0)
(51.0383 0.0165536 0)
(51.0442 0.00728124 0)
(51.051 -0.000117523 0)
(51.0581 -0.00561788 0)
(51.0649 -0.00940857 0)
(51.0712 -0.0118179 0)
(51.0765 -0.0131876 0)
(51.0809 -0.0137787 0)
(51.0844 -0.0138343 0)
(51.0873 -0.0134932 0)
(51.0905 -0.0128986 0)
(51.0937 -0.0121295 0)
(51.094 -0.0111978 0)
(51.0893 -0.0103831 0)
(51.0876 -0.00927481 0)
(51.1039 -0.010497 0)
(51.0225 -0.00703876 0)
(51.0626 -0.00387328 0)
(51.0627 -5.66459e-05 0)
(51.0694 0.00198388 0)
(51.0741 0.00371321 0)
(51.0793 0.00456213 0)
(51.0856 0.00584499 0)
(51.0912 0.00697791 0)
(51.0981 0.00899986 0)
(51.1047 0.0113105 0)
(51.112 0.0152153 0)
(51.1191 0.0202601 0)
(51.126 0.0275663 0)
(51.1318 0.0368032 0)
(51.1358 0.0485206 0)
(51.1368 0.0620074 0)
(51.1338 0.0766664 0)
(51.126 0.0908033 0)
(51.1133 0.102619 0)
(51.0967 0.109992 0)
(51.078 0.111545 0)
(51.0598 0.106811 0)
(51.0443 0.096628 0)
(51.033 0.0826785 0)
(51.0266 0.0670165 0)
(51.0246 0.0514115 0)
(51.0261 0.0370621 0)
(51.03 0.0244836 0)
(51.0355 0.0137527 0)
(51.0421 0.00484692 0)
(51.0493 -0.00216003 0)
(51.0567 -0.00726301 0)
(51.0637 -0.0106793 0)
(51.0699 -0.0127722 0)
(51.0752 -0.0138861 0)
(51.0793 -0.014285 0)
(51.0826 -0.0142116 0)
(51.086 -0.0137926 0)
(51.09 -0.0131379 0)
(51.0923 -0.0122724 0)
(51.0886 -0.0112282 0)
(51.0835 -0.0104195 0)
(51.0924 -0.00946367 0)
(51.0955 -0.0104729 0)
(50.8089 -0.00582848 0)
(51.0626 -0.00405055 0)
(51.0628 -0.000174704 0)
(51.0694 0.00177167 0)
(51.0741 0.00356015 0)
(51.0794 0.00437668 0)
(51.0856 0.00560116 0)
(51.0913 0.00665191 0)
(51.0983 0.00857177 0)
(51.1049 0.0107485 0)
(51.1125 0.0144909 0)
(51.1199 0.019347 0)
(51.1273 0.0264721 0)
(51.1338 0.0355993 0)
(51.1388 0.0473867 0)
(51.141 0.0612799 0)
(51.1394 0.0768618 0)
(51.1329 0.0925956 0)
(51.1211 0.106712 0)
(51.1046 0.116918 0)
(51.085 0.121418 0)
(51.0647 0.119203 0)
(51.0463 0.11063 0)
(51.032 0.0971498 0)
(51.0227 0.0808898 0)
(51.0185 0.0639275 0)
(51.0185 0.0478728 0)
(51.0216 0.0336129 0)
(51.0266 0.0213796 0)
(51.0329 0.0110436 0)
(51.04 0.00252779 0)
(51.0476 -0.00408951 0)
(51.0552 -0.00879945 0)
(51.0623 -0.0118571 0)
(51.0685 -0.0136451 0)
(51.0736 -0.0145197 0)
(51.0775 -0.0147446 0)
(51.0811 -0.0145673 0)
(51.0854 -0.0140857 0)
(51.0895 -0.0133443 0)
(51.0882 -0.0123439 0)
(51.0811 -0.0112272 0)
(51.0842 -0.0105669 0)
(51.0985 -0.00978543 0)
(50.9472 -0.00912063 0)
(50.5196 -0.00440587 0)
(51.0626 -0.0042227 0)
(51.0629 -0.000244562 0)
(51.0695 0.0015461 0)
(51.0742 0.00339933 0)
(51.0794 0.00419468 0)
(51.0857 0.00536751 0)
(51.0914 0.00634203 0)
(51.0984 0.00816484 0)
(51.1051 0.0102117 0)
(51.1129 0.0137927 0)
(51.1205 0.0184548 0)
(51.1284 0.0253797 0)
(51.1356 0.0343527 0)
(51.1415 0.0461264 0)
(51.145 0.0602928 0)
(51.1448 0.0766174 0)
(51.1397 0.0937507 0)
(51.1292 0.11002 0)
(51.1132 0.12305 0)
(51.093 0.130707 0)
(51.071 0.131445 0)
(51.0499 0.125054 0)
(51.0323 0.112607 0)
(51.0198 0.0961709 0)
(51.0129 0.0780494 0)
(51.011 0.0602438 0)
(51.0129 0.0440804 0)
(51.0174 0.0301369 0)
(51.0235 0.0183554 0)
(51.0304 0.00845562 0)
(51.0379 0.000330978 0)
(51.0459 -0.00590047 0)
(51.0537 -0.0102323 0)
(51.0609 -0.0129429 0)
(51.067 -0.0144416 0)
(51.0717 -0.0150924 0)
(51.0756 -0.0151706 0)
(51.0801 -0.014917 0)
(51.0854 -0.0143616 0)
(51.0871 -0.0134813 0)
(51.0803 -0.0123382 0)
(51.0767 -0.0113078 0)
(51.0961 -0.0109026 0)
(51.01 -0.00933514 0)
(50.6783 -0.00691136 0)
(50.1898 -0.00309771 0)
(51.0626 -0.00439843 0)
(51.063 -0.000289843 0)
(51.0695 0.00130606 0)
(51.0742 0.00318288 0)
(51.0794 0.00400272 0)
(51.0857 0.00513294 0)
(51.0914 0.00604713 0)
(51.0985 0.00777968 0)
(51.1053 0.00970141 0)
(51.1132 0.0131241 0)
(51.1211 0.0175905 0)
(51.1294 0.0243018 0)
(51.1372 0.0330857 0)
(51.144 0.0447748 0)
(51.1486 0.0590959 0)
(51.1499 0.0759913 0)
(51.1465 0.0943169 0)
(51.1373 0.112551 0)
(51.1222 0.128321 0)
(51.102 0.139252 0)
(51.0787 0.143305 0)
(51.0551 0.139655 0)
(51.0342 0.128864 0)
(51.0181 0.112783 0)
(51.008 0.0938337 0)
(51.0036 0.0743616 0)
(51.0041 0.0561305 0)
(51.0079 0.0401626 0)
(51.0137 0.0267051 0)
(51.0205 0.015453 0)
(51.0279 0.00600291 0)
(51.0359 -0.00173484 0)
(51.0441 -0.00759631 0)
(51.0521 -0.0115623 0)
(51.0593 -0.013941 0)
(51.0651 -0.0151627 0)
(51.0696 -0.0156152 0)
(51.0741 -0.0155836 0)
(51.0801 -0.0152633 0)
(51.0847 -0.0145845 0)
(51.0805 -0.0135088 0)
(51.072 -0.0123536 0)
(51.0839 -0.0115857 0)
(51.0645 -0.0108743 0)
(50.7669 -0.00757479 0)
(50.3504 -0.00479351 0)
(49.8417 -0.00194979 0)
(51.0626 -0.00462102 0)
(51.063 -0.000315005 0)
(51.0696 0.00107717 0)
(51.0742 0.00290315 0)
(51.0795 0.00377898 0)
(51.0857 0.00489265 0)
(51.0915 0.00576203 0)
(51.0986 0.00741483 0)
(51.1055 0.00921802 0)
(51.1135 0.0124866 0)
(51.1217 0.0167596 0)
(51.1303 0.023249 0)
(51.1387 0.0318175 0)
(51.1463 0.0433639 0)
(51.1521 0.0577364 0)
(51.1548 0.0750432 0)
(51.153 0.0943533 0)
(51.1455 0.114334 0)
(51.1316 0.132698 0)
(51.1118 0.146926 0)
(51.0877 0.154566 0)
(51.0619 0.154171 0)
(51.0377 0.145687 0)
(51.018 0.130584 0)
(51.0042 0.111266 0)
(50.9968 0.0903516 0)
(50.9951 0.0700211 0)
(50.9978 0.0517489 0)
(51.0032 0.0362179 0)
(51.0102 0.0233777 0)
(51.0177 0.0126966 0)
(51.0255 0.00369875 0)
(51.0337 -0.00367036 0)
(51.0422 -0.00917709 0)
(51.0504 -0.0127934 0)
(51.0575 -0.0148498 0)
(51.0629 -0.015815 0)
(51.0676 -0.0161092 0)
(51.0737 -0.0159997 0)
(51.0806 -0.0155815 0)
(51.0804 -0.0146872 0)
(51.0701 -0.0134807 0)
(51.0722 -0.0125169 0)
(51.0871 -0.0119553 0)
(50.8672 -0.00931245 0)
(50.4468 -0.00566182 0)
(49.9919 -0.00289277 0)
(49.4904 -0.0010063 0)
(51.0625 -0.00488465 0)
(51.063 -0.000339211 0)
(51.0696 0.000861104 0)
(51.0743 0.00260993 0)
(51.0795 0.00352154 0)
(51.0858 0.00463731 0)
(51.0915 0.00548326 0)
(51.0987 0.00706634 0)
(51.1056 0.00876037 0)
(51.1138 0.011881 0)
(51.1221 0.015965 0)
(51.1311 0.0222295 0)
(51.14 0.0305639 0)
(51.1484 0.0419209 0)
(51.1552 0.0562567 0)
(51.1593 0.0738314 0)
(51.1592 0.0939251 0)
(51.1535 0.11542 0)
(51.1412 0.13618 0)
(51.1222 0.15364 0)
(51.0977 0.165035 0)
(51.0703 0.168337 0)
(51.0431 0.162808 0)
(51.0195 0.149378 0)
(51.0017 0.130263 0)
(50.9908 0.108262 0)
(50.9864 0.0859448 0)
(50.9873 0.0652249 0)
(50.9921 0.0472283 0)
(50.999 0.0323289 0)
(51.0069 0.020193 0)
(51.0149 0.0101072 0)
(51.0231 0.00154618 0)
(51.0316 -0.0054758 0)
(51.0403 -0.0106476 0)
(51.0486 -0.0139224 0)
(51.0553 -0.0156694 0)
(51.0605 -0.0164154 0)
(51.0665 -0.0166007 0)
(51.0746 -0.0164132 0)
(51.0789 -0.015794 0)
(51.0703 -0.0146654 0)
(51.0632 -0.013533 0)
(51.0865 -0.0130075 0)
(50.9555 -0.011008 0)
(50.56 -0.00709087 0)
(50.0862 -0.00390934 0)
(49.6226 -0.00130323 0)
(49.146 -0.000274047 0)
(51.0626 -0.0051775 0)
(51.063 -0.000364072 0)
(51.0696 0.000685348 0)
(51.0743 0.00230778 0)
(51.0795 0.00325673 0)
(51.0858 0.00437072 0)
(51.0916 0.00520486 0)
(51.0987 0.00673102 0)
(51.1058 0.00832553 0)
(51.114 0.0113064 0)
(51.1226 0.0152081 0)
(51.1319 0.0212484 0)
(51.1412 0.0293375 0)
(51.1503 0.0404694 0)
(51.1581 0.0546952 0)
(51.1636 0.0724113 0)
(51.1651 0.0931006 0)
(51.1613 0.115874 0)
(51.1508 0.138794 0)
(51.133 0.159346 0)
(51.1088 0.174557 0)
(51.0801 0.181899 0)
(51.0503 0.17993 0)
(51.0229 0.168911 0)
(51.0009 0.150681 0)
(50.9859 0.128074 0)
(50.9782 0.104009 0)
(50.9768 0.0808493 0)
(50.9803 0.0601404 0)
(50.9869 0.0426812 0)
(50.9952 0.0285543 0)
(51.0038 0.0171838 0)
(51.0123 0.00769241 0)
(51.0207 -0.000455156 0)
(51.0295 -0.00715718 0)
(51.0385 -0.0120049 0)
(51.0465 -0.0149438 0)
(51.0527 -0.0164101 0)
(51.0586 -0.0169954 0)
(51.0671 -0.017106 0)
(51.0753 -0.0167564 0)
(51.0712 -0.01584 0)
(51.0582 -0.0146261 0)
(51.0725 -0.0139265 0)
(51.0263 -0.0127992 0)
(50.6698 -0.00868456 0)
(50.1992 -0.00503505 0)
(49.7087 -0.00239394 0)
(49.2555 -5.32703e-05 0)
(48.8153 0.000260516 0)
(51.0627 -0.00546119 0)
(51.0631 -0.000376884 0)
(51.0696 0.000544151 0)
(51.0743 0.00204676 0)
(51.0795 0.00299133 0)
(51.0858 0.00410883 0)
(51.0916 0.00492615 0)
(51.0988 0.00640457 0)
(51.1059 0.0079111 0)
(51.1142 0.010761 0)
(51.1229 0.0144886 0)
(51.1325 0.020309 0)
(51.1423 0.0281472 0)
(51.152 0.0390286 0)
(51.1608 0.0530849 0)
(51.1675 0.0708339 0)
(51.1707 0.0919473 0)
(51.1688 0.115768 0)
(51.1602 0.140591 0)
(51.1441 0.164031 0)
(51.1206 0.183021 0)