/*--------------------------------*- C++ -*----------------------------------*\
  =========                 |
  \\      /  F ield         | OpenFOAM: The Open Source CFD Toolbox
   \\    /   O peration     | Website:  https://openfoam.org
    \\  /    A nd           | Version:  dev
     \\/     M anipulation  |
\*---------------------------------------------------------------------------*/
FoamFile
{
    version     2.0;
    format      ascii;
    class       volScalarField;
    location    "250";
    object      yPlus;
}
// * * * * * * * * * * * * * * * * * * * * * * * * * * * * * * * * * * * * * //

dimensions      [0 0 0 0 0 0 0];

internalField   uniform 0;

boundaryField
{
    inlet-l
    {
        type            calculated;
        value           uniform 0;
    }
    airfoil-l1
    {
        type            calculated;
        value           nonuniform List<scalar> 
71
(
191.491
214.747
249.832
283.641
310.215
327.619
337.933
343.112
344.646
343.669
340.87
337.009
331.651
325.235
318.159
310.69
303
295.193
287.327
279.48
271.717
264.056
256.527
249.161
241.984
235.02
228.291
221.812
215.626
209.766
204.266
199.168
194.517
190.354
186.736
183.699
181.264
179.42
178.128
177.34
176.939
176.845
177.02
177.319
177.732
178.103
178.473
178.723
178.85
178.807
178.61
178.172
177.466
176.562
175.418
174.003
172.401
170.557
168.545
166.335
164.012
161.545
158.985
156.355
153.661
150.953
148.234
145.552
142.887
140.381
137.751
)
;
    }
    empty-1
    {
        type            empty;
    }
    empty-2
    {
        type            empty;
    }
    wall-l1
    {
        type            calculated;
        value           nonuniform List<scalar> 
104
(
25.596
25.8958
22.1418
16.4665
17.955
19.2778
18.6708
18.4853
17.3021
17.4326
17.8209
18.0413
18.5633
18.7408
18.7526
18.5096
18.2071
18.1758
18.319
18.571
18.7745
18.87
18.8926
18.9319
19.0062
19.0667
19.0448
18.9017
18.693
18.5218
18.4776
18.5826
18.7929
19.0373
19.2644
19.4719
19.6803
19.8972
20.0836
20.1587
20.0437
19.7089
19.212
18.69
18.3055
18.1767
18.3353
18.717
19.1842
19.5702
19.7487
19.6733
19.3853
18.994
18.628
18.3899
18.3211
18.4025
18.5682
18.7346
18.8322
18.83
18.7414
18.613
18.4988
18.4392
18.449
18.5128
18.5949
18.6553
18.6641
18.6098
18.5037
18.3719
18.2452
18.1496
18.0986
18.095
18.1297
18.1882
18.2535
18.3095
18.3426
18.3453
18.3134
18.2499
18.1617
18.059
17.9514
17.8475
17.7507
17.6633
17.5833
17.5099
17.4399
17.3732
17.3075
17.2422
17.1766
17.1096
17.0392
16.966
16.8886
16.7831
)
;
    }
    airfoil-l2
    {
        type            calculated;
        value           nonuniform List<scalar> 
104
(
137.399
139.767
141.614
142.946
143.912
144.596
145.058
145.338
145.487
145.533
145.458
145.283
145.041
144.754
144.431
144.077
143.695
143.311
142.905
142.485
142.061
141.632
141.198
140.753
140.305
139.857
139.405
138.95
138.493
138.03
137.56
137.101
136.647
136.183
135.714
135.248
134.784
134.322
133.861
133.396
132.93
132.464
131.996
131.529
131.065
130.597
130.128
129.658
129.19
128.722
128.251
127.777
127.303
126.831
126.357
125.879
125.395
124.912
124.427
123.939
123.444
122.949
122.454
121.947
121.439
120.926
120.406
119.879
119.348
118.815
118.272
117.714
117.154
116.587
115.997
115.409
114.809
114.188
113.557
112.911
112.246
111.553
110.852
110.129
109.382
108.613
107.812
106.959
106.046
105.103
104.129
103.123
102.073
100.949
99.7178
98.3539
96.85
95.2079
93.4142
91.3996
89.1078
86.2436
82.9962
76.7517
)
;
    }
    empty-3
    {
        type            empty;
    }
    empty-4
    {
        type            empty;
    }
    wall-l2
    {
        type            calculated;
        value           nonuniform List<scalar> 
51
(
16.8031
16.6456
16.5185
16.4485
16.3872
16.3568
16.2868
16.2497
16.1878
16.1109
16.0471
15.9638
15.8994
15.8339
15.766
15.7083
15.6548
15.6132
15.5807
15.5455
15.5194
15.5009
15.4914
15.4869
15.485
15.4796
15.4708
15.459
15.4501
15.4483
15.4596
15.4865
15.5338
15.6029
15.695
15.8031
15.9189
16.0279
16.1209
16.1899
16.2376
16.2663
16.2842
16.2915
16.29
16.2742
16.2444
16.2018
16.1577
16.1198
16.2007
)
;
    }
    outlet-l
    {
        type            calculated;
        value           uniform 0;
    }
    empty-5
    {
        type            empty;
    }
    empty-6
    {
        type            empty;
    }
    outlet-h
    {
        type            calculated;
        value           uniform 0;
    }
    wall-h2
    {
        type            calculated;
        value           nonuniform List<scalar> 
51
(
16.7318
16.6504
16.5727
16.5031
16.4415
16.3853
16.3293
16.2731
16.2134
16.1509
16.09
16.0337
15.9849
15.9412
15.8992
15.8477
15.8133
15.7864
15.7677
15.7571
15.7546
15.7598
15.7722
15.7907
15.8147
15.8436
15.8781
15.9193
15.9701
16.0333
16.1127
16.211
16.3301
16.4698
16.6285
16.8014
16.9827
17.165
17.3409
17.5031
17.6461
17.7656
17.8596
17.9275
17.9713
17.9943
18.0015
18.0002
17.9996
18.0023
18.1286
)
;
    }
    empty-7
    {
        type            empty;
    }
    empty-8
    {
        type            empty;
    }
    airfoil-h2
    {
        type            calculated;
        value           nonuniform List<scalar> 
104
(
136.047
138.381
140.212
141.544
142.517
143.223
143.711
144.028
144.213
144.302
144.293
144.191
144.022
143.798
143.529
143.234
142.909
142.578
142.222
141.861
141.49
141.106
140.715
140.32
139.918
139.502
139.092
138.675
138.251
137.828
137.399
136.962
136.523
136.094
135.659
135.217
134.769
134.318
133.873
133.42
132.973
132.52
132.065
131.608
131.151
130.692
130.228
129.763
129.301
128.833
128.373
127.895
127.419
126.946
126.467
125.989
125.513
125.03
124.536
124.046
123.545
123.052
122.546
122.041
121.53
121.016
120.495
119.964
119.432
118.895
118.342
117.789
117.224
116.65
116.066
115.469
114.868
114.247
113.615
112.964
112.293
111.61
110.908
110.178
109.43
108.656
107.842
106.987
106.086
105.145
104.166
103.151
102.089
100.965
99.7376
98.3756
96.8534
95.164
93.3071
91.2523
88.9665
86.1495
82.9658
76.7103
)
;
    }
    wall-h1
    {
        type            calculated;
        value           nonuniform List<scalar> 
104
(
17.579
17.6417
17.4875
17.2646
17.3724
17.4813
17.4866
17.5176
17.5264
17.6231
17.7315
17.8016
17.8507
17.8728
17.9063
17.9606
18.0301
18.1046
18.163
18.2017
18.2264
18.2494
18.2742
18.2984
18.3119
18.31
18.2965
18.2828
18.2838
18.3083
18.358
18.4237
18.4931
18.5548
18.6018
18.6347
18.6569
18.6721
18.6817
18.6842
18.679
18.6647
18.6459
18.6267
18.6143
18.6103
18.6157
18.6268
18.6379
18.6432
18.6369
18.6171
18.5832
18.5367
18.4823
18.4271
18.3774
18.3399
18.3176
18.3112
18.3155
18.3258
18.3354
18.3411
18.3407
18.3349
18.3281
18.3234
18.3222
18.3247
18.3278
18.3267
18.3167
18.2958
18.2638
18.2225
18.1737
18.1206
18.0654
18.009
17.9523
17.8967
17.8438
17.793
17.7463
17.7036
17.6663
17.6349
17.6087
17.5867
17.5647
17.5401
17.5091
17.4709
17.4238
17.3695
17.3076
17.2399
17.1678
17.0923
17.0165
16.9409
16.8698
16.7866
)
;
    }
    empty-9
    {
        type            empty;
    }
    empty-10
    {
        type            empty;
    }
    inlet-h
    {
        type            calculated;
        value           uniform 0;
    }
    airfoil-h1
    {
        type            calculated;
        value           nonuniform List<scalar> 
71
(
189.641
210.073
244.587
279.14
307.484
326.868
338.932
345.5
348.073
347.82
345.513
341.872
336.797
330.464
323.322
315.68
307.736
299.617
291.385
283.147
274.958
266.846
258.861
251.031
243.365
235.914
228.696
221.749
215.091
208.76
202.803
197.271
192.209
187.662
183.699
180.347
177.641
175.591
174.146
173.243
172.794
172.688
172.858
173.212
173.715
174.189
174.643
175.004
175.257
175.375
175.288
175.028
174.508
173.756
172.749
171.476
169.996
168.291
166.366
164.274
162.021
159.64
157.155
154.594
151.974
149.308
146.663
144.025
141.426
138.986
136.411
)
;
    }
    empty-11
    {
        type            empty;
    }
    empty-12
    {
        type            empty;
    }
}


// ************************************************************************* //
