/*--------------------------------*- C++ -*----------------------------------*\
  =========                 |
  \\      /  F ield         | OpenFOAM: The Open Source CFD Toolbox
   \\    /   O peration     | Website:  https://openfoam.org
    \\  /    A nd           | Version:  dev
     \\/     M anipulation  |
\*---------------------------------------------------------------------------*/
FoamFile
{
    version     2.0;
    format      ascii;
    class       surfaceScalarField;
    location    "300";
    object      phi;
}
// * * * * * * * * * * * * * * * * * * * * * * * * * * * * * * * * * * * * * //

dimensions      [0 3 -1 0 0 0 0];

internalField   nonuniform List<scalar> 
58294
(
-0.473364
6.68588e-06
-0.473367
6.6398e-06
-0.429535
7.24669e-06
-0.47337
7.23001e-06
-0.429535
7.42155e-06
-0.389856
8.85361e-06
-0.473374
7.80304e-06
-0.429536
7.97355e-06
-0.389856
7.63973e-06
-0.353782
6.56241e-06
-0.473379
8.10068e-06
-0.429537
8.64002e-06
-0.389855
6.92325e-06
-0.35378
5.52146e-06
-0.321062
2.91858e-06
-0.473384
7.99481e-06
-0.429538
9.24551e-06
-0.389853
6.801e-06
-0.353778
5.17028e-06
-0.321059
2.40118e-06
-0.291372
-5.34919e-07
-0.473389
7.42066e-06
-0.42954
9.51494e-06
-0.389851
6.85819e-06
-0.353777
5.53624e-06
-0.321057
3.10836e-06
-0.29137
-3.21094e-07
-0.264425
-4.37488e-06
-0.473393
6.42312e-06
-0.429542
9.34989e-06
-0.389848
6.98331e-06
-0.353777
6.27962e-06
-0.321056
4.67023e-06
-0.291368
1.13387e-06
-0.264422
-3.47449e-06
-0.239975
-8.70495e-06
-0.473397
5.04337e-06
-0.429544
8.66513e-06
-0.389846
7.04653e-06
-0.353777
7.24355e-06
-0.321057
6.68099e-06
-0.291367
3.50436e-06
-0.26442
-1.37719e-06
-0.239971
-7.21449e-06
-0.217776
-1.3383e-05
-0.4734
3.37572e-06
-0.429546
7.53283e-06
-0.389844
7.00772e-06
-0.353778
8.25639e-06
-0.321058
8.8901e-06
-0.291366
6.3187e-06
-0.264418
1.66927e-06
-0.239968
-4.63753e-06
-0.217772
-1.14404e-05
-0.197634
-1.83059e-05
-0.473402
1.53322e-06
-0.429549
6.04673e-06
-0.389844
6.87801e-06
-0.35378
9.197e-06
-0.321061
1.10231e-05
-0.291367
9.28525e-06
-0.264417
5.15839e-06
-0.239965
-1.03287e-06
-0.217768
-8.41627e-06
-0.197629
-1.58965e-05
-0.179352
-2.32352e-05
-0.473403
-3.25239e-07
-0.429552
4.40413e-06
-0.389844
6.72146e-06
-0.353783
1.00046e-05
-0.321065
1.29011e-05
-0.291368
1.21495e-05
-0.264416
8.84565e-06
-0.239963
3.08679e-06
-0.217765
-4.33687e-06
-0.197625
-1.2556e-05
-0.179348
-2.05073e-05
-0.16276
-2.81683e-05
-0.473403
-2.01562e-06
-0.429555
2.78896e-06
-0.389846
6.59728e-06
-0.353787
1.06496e-05
-0.321069
1.43796e-05
-0.29137
1.47071e-05
-0.264417
1.24557e-05
-0.239962
7.47256e-06
-0.217762
3.08371e-07
-0.197621
-8.1295e-06
-0.179343
-1.68747e-05
-0.162756
-2.50803e-05
-0.147704
-3.28442e-05
-0.473403
-3.36538e-06
-0.429559
1.39074e-06
-0.38985
6.52412e-06
-0.353792
1.11267e-05
-0.321074
1.54078e-05
-0.291372
1.68381e-05
-0.264418
1.58041e-05
-0.239961
1.18759e-05
-0.21776
5.33165e-06
-0.197618
-3.06992e-06
-0.179339
-1.22218e-05
-0.162751
-2.12946e-05
-0.147699
-2.95962e-05
-0.134041
-3.73612e-05
-0.473402
-4.23987e-06
-0.429562
3.36102e-07
-0.389855
6.46981e-06
-0.353797
1.1408e-05
-0.321079
1.59468e-05
-0.291375
1.84404e-05
-0.26442
1.87121e-05
-0.239962
1.60747e-05
-0.217758
1.04765e-05
-0.197615
2.45765e-06
-0.179335
-6.91588e-06
-0.162747
-1.65295e-05
-0.147695
-2.5659e-05
-0.134037
-3.38733e-05
-0.121639
-4.14633e-05
-0.473401
-4.59429e-06
-0.429566
-3.19109e-07
-0.389861
6.33812e-06
-0.353802
1.14491e-05
-0.321083
1.60244e-05
-0.291379
1.94894e-05
-0.264422
2.10792e-05
-0.239963
1.98873e-05
-0.217758
1.55305e-05
-0.197613
8.24656e-06
-0.179332
-1.0292e-06
-0.162743
-1.10851e-05
-0.147691
-2.08913e-05
-0.134032
-2.99262e-05
-0.121635
-3.79588e-05
-0.110385
-4.53339e-05
-0.4734
-4.46633e-06
-0.42957
-5.88117e-07
-0.389867
6.03756e-06
-0.353806
1.11874e-05
-0.321087
1.5662e-05
-0.291382
1.99653e-05
-0.264425
2.28142e-05
-0.239965
2.31519e-05
-0.217758
2.02777e-05
-0.197611
1.40891e-05
-0.179329
5.26356e-06
-0.162739
-4.9976e-06
-0.147686
-1.54719e-05
-0.134028
-2.52491e-05
-0.121631
-3.39655e-05
-0.110381
-4.16997e-05
-0.100173
-4.86934e-05
-0.4734
-3.9894e-06
-0.429574
-5.64547e-07
-0.389874
5.47685e-06
-0.353811
1.05808e-05
-0.321091
1.49286e-05
-0.291387
1.99114e-05
-0.264429
2.3902e-05
-0.239968
2.57611e-05
-0.217759
2.45306e-05
-0.197611
1.97591e-05
-0.179327
1.17807e-05
-0.162735
1.63882e-06
-0.147682
-9.33326e-06
-0.134024
-1.99376e-05
-0.121626
-2.94686e-05
-0.110378
-3.77904e-05
-0.10017
-4.51863e-05
-0.090906
-5.18105e-05
-0.473401
-3.3364e-06
-0.429578
-3.61522e-07
-0.389879
4.65308e-06
-0.353815
9.62282e-06
-0.321094
1.38887e-05
-0.291391
1.93708e-05
-0.264434
2.43421e-05
-0.239972
2.76446e-05
-0.217762
2.81355e-05
-0.197611
2.50416e-05
-0.179325
1.83039e-05
-0.162732
8.69105e-06
-0.147678
-2.51195e-06
-0.134019
-1.38966e-05
-0.121622
-2.44024e-05
-0.110374
-3.35401e-05
-0.100166
-4.12932e-05
-0.0909029
-4.83089e-05
-0.0824967
-5.43658e-05
-0.473402
-2.70088e-06
-0.429581
-1.27453e-07
-0.389883
3.60063e-06
-0.353819
8.36504e-06
-0.321097
1.26404e-05
-0.291396
1.84382e-05
-0.264439
2.41912e-05
-0.239976
2.87886e-05
-0.217765
3.09806e-05
-0.197613
2.9732e-05
-0.179325
2.45895e-05
-0.16273
1.59451e-05
-0.147674
4.90098e-06
-0.134014
-7.06443e-06
-0.121617
-1.85806e-05
-0.110369
-2.87626e-05
-0.100162
-3.73633e-05
-0.0908997
-4.45507e-05
-0.0824939
-5.11654e-05
-0.0748585
-5.66942e-05
-0.473403
-2.2361e-06
-0.429584
3.11461e-08
-0.389885
2.439e-06
-0.353822
6.90972e-06
-0.3211
1.12666e-05
-0.2914
1.7197e-05
-0.264444
2.35196e-05
-0.239981
2.9209e-05
-0.217769
3.30065e-05
-0.197616
3.36759e-05
-0.179325
3.04003e-05
-0.162728
2.31554e-05
-0.147671
1.27435e-05
-0.13401
5.51682e-07
-0.121612
-1.18758e-05
-0.110365
-2.32771e-05
-0.100158
-3.29832e-05
-0.0908961
-4.09847e-05
-0.082491
-4.74546e-05
-0.074856
-5.36618e-05
-0.0679355
-5.84655e-05
-0.473405
-2.04744e-06
-0.429586
1.48451e-08
-0.389886
1.27977e-06
-0.353825
5.38692e-06
-0.321103
9.8612e-06
-0.291405
1.57581e-05
-0.264449
2.24239e-05
-0.239987
2.89726e-05
-0.217774
3.41977e-05
-0.197619
3.67578e-05
-0.179327
3.55251e-05
-0.162728
3.00525e-05
-0.147668
2.07618e-05
-0.134006
8.80705e-06
-0.121608
-4.24574e-06
-0.11036
-1.6852e-05
-0.100154
-2.79132e-05
-0.090892
-3.69993e-05
-0.0824876
-4.43248e-05
-0.0748534
-5.01095e-05
-0.0679332
-5.59154e-05
-0.0616457
-6.00634e-05
-0.473406
-2.16228e-06
-0.429588
-2.01073e-07
-0.389886
2.56699e-07
-0.353827
3.93126e-06
-0.321106
8.48354e-06
-0.291409
1.42084e-05
-0.264454
2.10041e-05
-0.239992
2.81567e-05
-0.21778
3.45899e-05
-0.197624
3.89179e-05
-0.17933
3.97996e-05
-0.162729
3.6381e-05
-0.147667
2.86625e-05
-0.134003
1.74782e-05
-0.121603
4.26249e-06
-0.110354
-9.33714e-06
-0.100149
-2.18607e-05
-0.0908875
-3.24166e-05
-0.0824838
-4.08229e-05
-0.0748503
-4.74554e-05
-0.0679309
-5.24074e-05
-0.0616438
-5.78535e-05
-0.0559434
-6.11363e-05
-0.473406
-2.54759e-06
-0.429589
-6.18341e-07
-0.389886
-5.59235e-07
-0.35383
2.65006e-06
-0.321109
7.18625e-06
-0.291413
1.26348e-05
-0.264459
1.93648e-05
-0.239998
2.68713e-05
-0.217786
3.42478e-05
-0.19763
4.01563e-05
-0.179334
4.31097e-05
-0.162731
4.19228e-05
-0.147667
3.6159e-05
-0.134
2.62698e-05
-0.121599
1.3431e-05
-0.110349
-7.59095e-07
-0.100143
-1.46315e-05
-0.0908826
-2.68446e-05
-0.0824795
-3.67589e-05
-0.0748467
-4.4409e-05
-0.0679281
-5.03056e-05
-0.0616417
-5.44877e-05
-0.0559417
-5.95801e-05
-0.0507682
-6.20999e-05
-0.473407
-3.11031e-06
-0.42959
-1.16932e-06
-0.389885
-1.11547e-06
-0.353832
1.61704e-06
-0.321113
5.98972e-06
-0.291417
1.10945e-05
-0.264464
1.75992e-05
-0.240004
2.52251e-05
-0.217792
3.32722e-05
-0.197636
4.05065e-05
-0.17934
4.54062e-05
-0.162734
4.65103e-05
-0.147668
4.29834e-05
-0.133999
3.48467e-05
-0.121596
2.29513e-05
-0.110345
8.73078e-06
-0.100138
-6.11318e-06
-0.0908772
-1.99761e-05
-0.0824746
-3.17049e-05
-0.0748426
-4.09059e-05
-0.0679247
-4.77974e-05
-0.0616391
-5.29726e-05
-0.0559399
-5.6224e-05
-0.0507667
-6.1031e-05
-0.0460686
-6.2611e-05
-0.473406
-3.72754e-06
-0.429592
-1.78087e-06
-0.389885
-1.42921e-06
-0.353834
8.59052e-07
-0.321116
4.91206e-06
-0.291421
9.63654e-06
-0.264469
1.57913e-05
-0.24001
2.33343e-05
-0.217799
3.178e-05
-0.197643
4.00597e-05
-0.179346
4.6689e-05
-0.162739
5.00466e-05
-0.14767
4.89159e-05
-0.133999
4.29074e-05
-0.121593
3.24911e-05
-0.110341
1.88444e-05
-0.100133
3.55106e-06
-0.0908716
-1.16823e-05
-0.0824692
-2.53297e-05
-0.0748378
-3.64346e-05
-0.0679207
-4.48508e-05
-0.0616359
-5.09542e-05
-0.0559375
-5.53843e-05
-0.0507652
-5.77613e-05
-0.0460673
-6.23172e-05
-0.0418058
-6.30983e-05
-0.473405
-4.26254e-06
-0.429593
-2.3455e-06
-0.389885
-1.53169e-06
-0.353836
3.68879e-07
-0.321119
3.95915e-06
-0.291424
8.28669e-06
-0.264473
1.40113e-05
-0.240015
2.13038e-05
-0.217806
2.98981e-05
-0.19765
3.89222e-05
-0.179353
4.70129e-05
-0.162745
5.24759e-05
-0.147674
5.38071e-05
-0.134
5.01845e-05
-0.121592
4.16928e-05
-0.110337
2.91926e-05
-0.100128
1.40729e-05
-0.0908661
-2.00194e-06
-0.0824636
-1.73332e-05
-0.0748326
-3.05671e-05
-0.0679162
-4.09541e-05
-0.0616322
-4.85807e-05
-0.0559345
-5.39457e-05
-0.050763
-5.76334e-05
-0.0460661
-5.89667e-05
-0.0418046
-6.33923e-05
-0.0379373
-6.32238e-05
-0.473404
-4.60032e-06
-0.429594
-2.78589e-06
-0.389886
-1.49958e-06
-0.353837
1.03158e-07
-0.321122
3.14049e-06
-0.291427
7.06884e-06
-0.264477
1.2312e-05
-0.240021
1.92307e-05
-0.217812
2.77523e-05
-0.197657
3.72325e-05
-0.17936
4.64742e-05
-0.162751
5.38216e-05
-0.147679
5.75556e-05
-0.134003
5.64812e-05
-0.121592
5.02509e-05
-0.110335
3.94089e-05
-0.100124
2.50931e-05
-0.0908608
8.81629e-06
-0.0824578
-7.74604e-06
-0.0748269
-2.29994e-05
-0.0679111
-3.56895e-05
-0.0616279
-4.52813e-05
-0.055931
-5.21167e-05
-0.0507602
-5.67298e-05
-0.046064
-5.96373e-05
-0.0418036
-6.00089e-05
-0.0379363
-6.43663e-05
-0.0344259
-6.34045e-05
-0.473403
-4.6689e-06
-0.429596
-3.03395e-06
-0.389887
-1.401e-06
-0.353839
-5.06328e-10
-0.321124
2.45877e-06
-0.29143
5.98879e-06
-0.264481
1.07377e-05
-0.240025
1.71911e-05
-0.217818
2.54614e-05
-0.197665
3.51219e-05
-0.179368
4.5195e-05
-0.162759
5.41369e-05
-0.147685
6.01311e-05
-0.134007
6.1648e-05
-0.121594
5.79292e-05
-0.110334
4.91384e-05
-0.100121
3.61721e-05
-0.090856
2.03391e-05
-0.0824522
3.19372e-06
-0.0748211
-1.36228e-05
-0.0679055
-2.85664e-05
-0.0616229
-4.05792e-05
-0.0559269
-4.9367e-05
-0.0507569
-5.54615e-05
-0.0460614
-5.93739e-05
-0.0418018
-6.1496e-05
-0.0379355
-6.07564e-05
-0.034425
-6.51991e-05
-0.0312395
-6.33099e-05
-0.473402
-4.46575e-06
-0.429597
-3.08147e-06
-0.389889
-1.31737e-06
-0.35384
-2.19154e-08
-0.321126
1.91263e-06
-0.291433
5.04979e-06
-0.264484
9.30779e-06
-0.24003
1.5251e-05
-0.217824
2.31246e-05
-0.197672
3.2734e-05
-0.179376
4.33184e-05
-0.162767
5.35314e-05
-0.147693
6.15497e-05
-0.134013
6.5611e-05
-0.121597
6.45416e-05
-0.110334
5.81121e-05
-0.100118
4.69297e-05
-0.090852
3.21388e-05
-0.0824469
1.51125e-05
-0.0748152
-2.6186e-06
-0.0678996
-1.94686e-05
-0.0616175
-3.40069e-05
-0.0559222
-4.52814e-05
-0.050753
-5.32557e-05
-0.0460582
-5.86348e-05
-0.0417993
-6.18281e-05
-0.0379339
-6.31272e-05
-0.0344245
-6.13783e-05
-0.0312387
-6.59972e-05
-0.0283484
-6.3338e-05
-0.473401
-4.05397e-06
-0.429599
-2.94993e-06
-0.389891
-1.29518e-06
-0.353841
-3.74585e-08
-0.321128
1.48317e-06
-0.291435
4.24241e-06
-0.264487
8.03438e-06
-0.240034
1.34461e-05
-0.21783
2.08322e-05
-0.197679
3.01819e-05
-0.179385
4.09905e-05
-0.162776
5.21263e-05
-0.147701
6.18804e-05
-0.134019
6.83398e-05
-0.121601
6.99742e-05
-0.110336
6.61155e-05
-0.100117
5.70628e-05
-0.0908488
4.37677e-05
-0.0824423
2.74815e-05
-0.0748097
9.55084e-06
-0.0678937
-8.55112e-06
-0.0616117
-2.52737e-05
-0.0559169
-3.92195e-05
-0.0507485
-4.96975e-05
-0.0460546
-5.69109e-05
-0.0417963
-6.16414e-05
-0.0379315
-6.41636e-05
-0.034423
-6.46202e-05
-0.0312383
-6.17511e-05
-0.0283476
-6.67305e-05
-0.0257245
-6.31812e-05
-0.4734
-3.54797e-06
-0.4296
-2.71085e-06
-0.389892
-1.3595e-06
-0.353842
-1.1025e-07
-0.321129
1.14223e-06
-0.291437
3.54713e-06
-0.26449
6.91143e-06
-0.240038
1.17999e-05
-0.217835
1.86374e-05
-0.197686
2.75861e-05
-0.179393
3.83498e-05
-0.162785
5.00787e-05
-0.14771
6.12239e-05
-0.134027
6.98565e-05
-0.121607
7.41526e-05
-0.110339
7.3017e-05
-0.100118
6.63456e-05
-0.0908467
5.48954e-05
-0.0824383
3.98274e-05
-0.0748046
2.23834e-05
-0.0678879
3.81649e-06
-0.0616058
-1.44486e-05
-0.0559113
-3.08806e-05
-0.0507435
-4.42222e-05
-0.0460504
-5.39047e-05
-0.0417928
-6.03817e-05
-0.0379287
-6.45022e-05
-0.0344208
-6.63151e-05
-0.031237
-6.58934e-05
-0.0283473
-6.20529e-05
-0.0257237
-6.75077e-05
-0.0233439
-6.31937e-05
-0.4734
-3.07887e-06
-0.429601
-2.4403e-06
-0.389893
-1.48772e-06
-0.353843
-2.65702e-07
-0.32113
8.52463e-07
-0.291439
2.93953e-06
-0.264492
5.922e-06
-0.240041
1.03175e-05
-0.21784
1.6583e-05
-0.197692
2.50153e-05
-0.179401
3.55342e-05
-0.162795
4.75269e-05
-0.14772
5.97176e-05
-0.134036
7.02261e-05
-0.121614
7.70605e-05
-0.110343
7.87073e-05
-0.100119
7.4628e-05
-0.0908456
6.52842e-05
-0.0824352
5.17729e-05
-0.0748
3.5306e-05
-0.0678826
1.69982e-05
-0.0616
-2.00467e-06
-0.0559055
-2.02892e-05
-0.0507381
-3.63318e-05
-0.0460456
-4.89273e-05
-0.0417889
-5.78065e-05
-0.0379254
-6.36428e-05
-0.0344181
-6.72177e-05
-0.0312349
-6.8347e-05
-0.0283462
-6.70324e-05
-0.0257236
-6.21785e-05
-0.0233431
-6.83057e-05
-0.0211826
-6.30838e-05
-0.473399
-2.74669e-06
-0.429602
-2.21806e-06
-0.389894
-1.63567e-06
-0.353844
-4.92376e-07
-0.321131
5.83964e-07
-0.29144
2.39408e-06
-0.264495
5.04333e-06
-0.240044
8.9854e-06
-0.217844
1.46881e-05
-0.197698
2.25392e-05
-0.179408
3.26418e-05
-0.162804
4.46397e-05
-0.14773
5.75021e-05
-0.134046
6.95541e-05
-0.121622
7.87044e-05
-0.110349
8.31289e-05
-0.100122
8.18027e-05
-0.0908458
7.4806e-05
-0.082433
6.30778e-05
-0.0747962
4.78959e-05
-0.0678776
3.03824e-05
-0.0615944
1.14732e-05
-0.0558997
-7.77387e-06
-0.0507324
-2.5932e-05
-0.0460405
-4.14803e-05
-0.0417845
-5.3382e-05
-0.0379217
-6.14994e-05
-0.034415
-6.67423e-05
-0.0312324
-6.97974e-05
-0.0283443
-7.01807e-05
-0.0257226
-6.7964e-05
-0.023343
-6.23013e-05
-0.0211816
-6.92122e-05
-0.0192221
-6.31609e-05
-0.473399
-2.5953e-06
-0.429602
-2.08303e-06
-0.389894
-1.74172e-06
-0.353845
-7.40459e-07
-0.321131
3.20053e-07
-0.291442
1.89335e-06
-0.264496
4.25375e-06
-0.240047
7.78814e-06
-0.217848
1.29509e-05
-0.197703
2.01939e-05
-0.179416
2.97629e-05
-0.162813
4.15283e-05
-0.14774
5.47522e-05
-0.134057
6.79621e-05
-0.121632
7.91582e-05
-0.110357
8.62474e-05
-0.100127
8.77787e-05
-0.0908473
8.33439e-05
-0.0824318
7.36225e-05
-0.074793
5.99012e-05
-0.0678732
4.34682e-05
-0.0615893
2.52293e-05
-0.0558941
5.91898e-06
-0.0507268
-1.34532e-05
-0.046035
-3.14078e-05
-0.0417796
-4.64118e-05
-0.0379176
-5.75004e-05
-0.0344116
-6.48941e-05
-0.0312294
-6.966e-05
-0.0283419
-7.2225e-05
-0.0257209
-7.1864e-05
-0.0233421
-6.87689e-05
-0.0211815
-6.23327e-05
-0.019221
-7.01994e-05
-0.0174426
-6.31613e-05
-0.473398
-2.59772e-06
-0.429603
-2.04177e-06
-0.389895
-1.76525e-06
-0.353846
-9.4801e-07
-0.321132
6.39753e-08
-0.291443
1.43099e-06
-0.264498
3.53578e-06
-0.24005
6.70441e-06
-0.217852
1.13648e-05
-0.197708
1.7997e-05
-0.179422
2.69642e-05
-0.162821
3.83197e-05
-0.14775
5.15998e-05
-0.134067
6.56219e-05
-0.121643
7.84954e-05
-0.110366
8.80729e-05
-0.100133
9.24795e-05
-0.0908504
9.08204e-05
-0.0824318
8.33475e-05
-0.0747906
7.12493e-05
-0.0678693
5.59828e-05
-0.0615845
3.86801e-05
-0.0558889
1.99832e-05
-0.0507213
4.47069e-07
-0.0460295
-1.89285e-05
-0.0417743
-3.65857e-05
-0.037913
-5.09705e-05
-0.0344077
-6.13527e-05
-0.0312262
-6.81032e-05
-0.0283391
-7.24289e-05
-0.0257186
-7.44907e-05
-0.0233407
-7.33176e-05
-0.0211809
-6.93948e-05
-0.0192209
-6.24324e-05
-0.0174414
-7.13364e-05
-0.0158282
-6.33223e-05
-0.473397
-2.67146e-06
-0.429603
-2.05453e-06
-0.389895
-1.68865e-06
-0.353847
-1.06409e-06
-0.321133
-1.66763e-07
-0.291444
1.01267e-06
-0.264499
2.88349e-06
-0.240052
5.71907e-06
-0.217855
9.91585e-06
-0.197713
1.5955e-05
-0.179429
2.4279e-05
-0.162829
3.51022e-05
-0.14776
4.81919e-05
-0.134079
6.26666e-05
-0.121654
7.68765e-05
-0.110376
8.864e-05
-0.100141
9.58685e-05
-0.090855
9.71229e-05
-0.0824332
9.21735e-05
-0.0747892
8.19085e-05
-0.0678659
6.78719e-05
-0.06158
5.15157e-05
-0.0558839
3.37113e-05
-0.0507161
1.47781e-05
-0.0460242
-4.87858e-06
-0.0417691
-2.42136e-05
-0.0379081
-4.15337e-05
-0.0344034
-5.52781e-05
-0.0312227
-6.48646e-05
-0.0283362
-7.10388e-05
-0.025716
-7.50227e-05
-0.0233386
-7.65648e-05
-0.0211796
-7.45903e-05
-0.0192204
-6.99217e-05
-0.0174412
-6.2533e-05
-0.0158269
-7.25878e-05
-0.0143631
-6.33826e-05
-0.473396
-2.71558e-06
-0.429604
-2.06866e-06
-0.389896
-1.53671e-06
-0.353847
-1.06976e-06
-0.321134
-3.5152e-07
-0.291445
6.51111e-07
-0.264501
2.29679e-06
-0.240054
4.82321e-06
-0.217858
8.5914e-06
-0.197717
1.40677e-05
-0.179435
2.17385e-05
-0.162837
3.19397e-05
-0.147769
4.46512e-05
-0.13409
5.92621e-05
-0.121666
7.44115e-05
-0.110387
8.80585e-05
-0.10015
9.79088e-05
-0.0908613
0.000102168
-0.0824361
9.99997e-05
-0.0747889
9.18781e-05
-0.0678632
7.92134e-05
-0.0615759
6.37349e-05
-0.0558791
4.67298e-05
-0.0507111
2.87041e-05
-0.0460191
9.69878e-06
-0.041764
-9.98574e-06
-0.037903
-2.92064e-05
-0.0343988
-4.61193e-05
-0.0312188
-5.91794e-05
-0.0283329
-6.81263e-05
-0.0257133
-7.38178e-05
-0.0233361
-7.7454e-05
-0.0211777
-7.84352e-05
-0.0192193
-7.56208e-05
-0.0174408
-7.03219e-05
-0.0158266
-6.27567e-05
-0.0143616
-7.39585e-05
-0.0130334
-6.35099e-05
-0.473396
-2.64806e-06
-0.429604
-2.03034e-06
-0.389896
-1.35663e-06
-0.353848
-9.86165e-07
-0.321134
-4.76545e-07
-0.291445
3.57595e-07
-0.264502
1.78485e-06
-0.240055
4.01481e-06
-0.21786
7.38531e-06
-0.197721
1.2329e-05
-0.17944
1.93548e-05
-0.162844
2.88832e-05
-0.147779
4.10633e-05
-0.134101
5.55542e-05
-0.121678
7.12776e-05
-0.110399
8.6416e-05
-0.100161
9.86691e-05
-0.0908693
0.000105863
-0.0824406
0.000106701
-0.0747899
0.000101056
-0.0678614
9.00511e-05
-0.0615721
7.54653e-05
-0.0558744
5.90406e-05
-0.0507061
4.17756e-05
-0.0460142
2.37966e-05
-0.0417591
4.83295e-06
-0.0378982
-1.48577e-05
-0.0343941
-3.39611e-05
-0.0312145
-5.04472e-05
-0.0283293
-6.28325e-05
-0.0257103
-7.10818e-05
-0.0233336
-7.63531e-05
-0.0211755
-7.9697e-05
-0.0192177
-8.007e-05
-0.0174399
-7.6451e-05
-0.0158262
-7.06601e-05
-0.0143613
-6.30462e-05
-0.0130319
-7.53453e-05
-0.0118268
-6.36011e-05
-0.473394
-2.43559e-06
-0.429605
-1.91757e-06
-0.389897
-1.20888e-06
-0.353849
-8.66624e-07
-0.321135
-5.43789e-07
-0.291446
1.35339e-07
-0.264503
1.35327e-06
-0.240057
3.29956e-06
-0.217863
6.29301e-06
-0.197724
1.07399e-05
-0.179445
1.71371e-05
-0.162851
2.59689e-05
-0.147787
3.75128e-05
-0.134111
5.16554e-05
-0.12169
6.76289e-05
-0.110412
8.38661e-05
-0.100173
9.81744e-05
-0.0908788
0.000108204
-0.0824469
0.000112128
-0.0747926
0.000109316
-0.0678607
0.000100356
-0.061569
8.68947e-05
-0.0558699
7.09164e-05
-0.0507011
5.40284e-05
-0.0460092
3.6846e-05
-0.0417544
1.90639e-05
-0.0378935
2.06856e-07
-0.0343895
-1.94495e-05
-0.03121
-3.8381e-05
-0.0283253
-5.43893e-05
-0.025707
-6.6093e-05
-0.0233309
-7.38298e-05
-0.0211731
-7.87577e-05
-0.0192156
-8.17512e-05
-0.0174385
-8.14601e-05
-0.0158256
-7.70452e-05
-0.014361
-7.09407e-05
-0.0130315
-6.34295e-05
-0.0118253
-7.67023e-05
-0.010732
-6.40325e-05
-0.473394
-2.112e-06
-0.429606
-1.73633e-06
-0.389898
-1.13953e-06
-0.353849
-7.75493e-07
-0.321135
-5.71334e-07
-0.291446
-2.34055e-08
-0.264504
1.00401e-06
-0.240058
2.68258e-06
-0.217865
5.3204e-06
-0.197727
9.29519e-06
-0.179449
1.50928e-05
-0.162857
2.32184e-05
-0.147795
3.4057e-05
-0.134121
4.76804e-05
-0.121702
6.36029e-05
-0.110425
8.05711e-05
-0.100185
9.65561e-05
-0.0908898
0.000109162
-0.0824549
0.000116219
-0.0747969
0.000116459
-0.0678614
0.000109991
-0.0615667
9.80447e-05
-0.0558656
8.26316e-05
-0.050696
6.57816e-05
-0.0460041
4.88487e-05
-0.0417495
3.20131e-05
-0.0378891
1.4591e-05
-0.0343851
-4.13106e-06
-0.0312057
-2.37781e-05
-0.0283212
-4.25539e-05
-0.0257033
-5.80842e-05
-0.0233278
-6.91473e-05
-0.0211706
-7.63237e-05
-0.0192134
-8.09432e-05
-0.0174367
-8.3593e-05
-0.0158245
-8.25777e-05
-0.0143605
-7.74586e-05
-0.0130312
-7.11925e-05
-0.0118249
-6.37684e-05
-0.0107305
-7.81154e-05
-0.00973867
-6.47383e-05
-0.473393
-1.75151e-06
-0.429606
-1.52751e-06
-0.389898
-1.16233e-06
-0.353849
-7.65792e-07
-0.321135
-5.87587e-07
-0.291447
-1.37022e-07
-0.264505
7.29454e-07
-0.240059
2.16463e-06
-0.217866
4.46991e-06
-0.19773
8.00258e-06
-0.179453
1.32222e-05
-0.162862
2.06555e-05
-0.147803
3.07419e-05
-0.134131
4.37172e-05
-0.121713
5.93398e-05
-0.110438
7.66695e-05
-0.100199
9.39485e-05
-0.0909021
0.000108809
-0.0824646
0.000118864
-0.074803
0.00012236
-0.0678636
0.000118734
-0.0615655
0.000108819
-0.0558619
9.43404e-05
-0.0506908
7.75147e-05
-0.0459986
6.02951e-05
-0.0417444
4.36939e-05
-0.0378845
2.74207e-05
-0.0343809
1.03911e-05
-0.0312016
-8.19199e-06
-0.0283171
-2.78105e-05
-0.0256995
-4.63826e-05
-0.0233245
-6.14056e-05
-0.0211678
-7.18529e-05
-0.0192111
-7.86592e-05
-0.0174346
-8.30149e-05
-0.0158228
-8.52135e-05
-0.0143596
-8.34404e-05
-0.0130309
-7.77023e-05
-0.0118247
-7.1355e-05
-0.0107301
-6.40331e-05
-0.00973687
-7.98431e-05
-0.00883687
-6.4009e-05
-0.473394
-1.45373e-06
-0.429607
-1.34003e-06
-0.389898
-1.25577e-06
-0.35385
-8.51627e-07
-0.321135
-6.21196e-07
-0.291447
-2.27538e-07
-0.264505
5.14841e-07
-0.24006
1.74055e-06
-0.217868
3.74146e-06
-0.197732
6.86133e-06
-0.179456
1.15349e-05
-0.162867
1.82838e-05
-0.14781
2.7607e-05
-0.13414
3.9837e-05
-0.121724
5.49619e-05
-0.110451
7.23307e-05
-0.100213
9.049e-05
-0.0909154
0.000107249
-0.0824759
0.000120076
-0.074811
0.00012684
-0.0678677
0.000126406
-0.0615657
0.000118971
-0.0558591
0.000105979
-0.050686
8.9485e-05
-0.0459928
7.1775e-05
-0.0417387
5.46184e-05
-0.0378794
3.86339e-05
-0.0343766
2.30655e-05
-0.0311978
6.52023e-06
-0.0283134
-1.19501e-05
-0.0256957
-3.15872e-05
-0.0233209
-4.99831e-05
-0.0211648
-6.45103e-05
-0.0192086
-7.4407e-05
-0.0174325
-8.08093e-05
-0.015821
-8.48914e-05
-0.0143583
-8.65988e-05
-0.0130303
-8.40596e-05
-0.0118246
-7.77618e-05
-0.0107301
-7.13216e-05
-0.00973637
-6.44621e-05
-0.00883571
-8.09435e-05
-0.00801143
-5.7063e-05
-0.473393
-1.28443e-06
-0.429607
-1.2157e-06
-0.389899
-1.36907e-06
-0.35385
-1.00962e-06
-0.321136
-6.86173e-07
-0.291448
-3.1512e-07
-0.264506
3.41194e-07
-0.240061
1.39567e-06
-0.217869
3.12873e-06
-0.197735
5.86937e-06
-0.17946
1.00312e-05
-0.162872
1.6123e-05
-0.147816
2.4669e-05
-0.134149
3.61054e-05
-0.121735
5.05678e-05
-0.110463
6.76991e-05
-0.100227
8.63535e-05
-0.0909295
0.000104586
-0.0824885
0.0001199
-0.0748208
0.000129842
-0.0678736
0.000132766
-0.0615676
0.000128282
-0.0558574
0.000117298
-0.0506817
0.000101705
-0.0459871
8.37353e-05
-0.0417326
6.56325e-05
-0.0378737
4.89293e-05
-0.0343718
3.3817e-05
-0.0311937
1.90642e-05
-0.0283098
2.94697e-06
-0.0256922
-1.5439e-05
-0.0233174
-3.50774e-05
-0.0211615
-5.32496e-05
-0.0192058
-6.72781e-05
-0.0174302
-7.6688e-05
-0.0158189
-8.28622e-05
-0.0143565
-8.66576e-05
-0.0130291
-8.7772e-05
-0.0118242
-8.44737e-05
-0.0107303
-7.75416e-05
-0.00973643
-7.12205e-05
-0.00883445
-6.56276e-05
-0.00801729
-7.50173e-05
-0.00724385
-4.63277e-05
-0.473393
-1.26289e-06
-0.429607
-1.16596e-06
-0.389898
-1.43852e-06
-0.35385
-1.18129e-06
-0.321136
-7.79424e-07
-0.291448
-4.08597e-07
-0.264506
1.91042e-07
-0.240062
1.11271e-06
-0.217871
2.61631e-06
-0.197736
5.0178e-06
-0.179462
8.70647e-06
-0.162876
1.41745e-05
-0.147822
2.19583e-05
-0.134156
3.25538e-05
-0.121745
4.6256e-05
-0.110476
6.29088e-05
-0.100241
8.17083e-05
-0.0909441
0.000100992
-0.0825023
0.0001184
-0.0748322
0.000131341
-0.0678814
0.000137682
-0.0615713
0.000136457
-0.0558572
0.000128044
-0.0506783
0.000113925
-0.0459817
9.62666e-05
-0.0417262
7.7339e-05
-0.0378674
5.92733e-05
-0.0343662
4.33219e-05
-0.0311892
2.92363e-05
-0.0283061
1.53466e-05
-0.025689
-2.90575e-07
-0.0233142
-1.86437e-05
-0.0211582
-3.8337e-05
-0.0192027
-5.63122e-05
-0.0174276
-6.98795e-05
-0.0158168
-7.8899e-05
-0.0143546
-8.47894e-05
-0.0130275
-8.82515e-05
-0.0118232
-8.87737e-05
-0.0107302
-8.45839e-05
-0.00973691
-7.6993e-05
-0.00883415
-7.14471e-05
-0.00801758
-6.52852e-05
-0.00725789
-6.09491e-05
-0.00653895
-3.4846e-05
-0.473392
-1.36521e-06
-0.429607
-1.17659e-06
-0.389898
-1.42403e-06
-0.35385
-1.29673e-06
-0.321136
-8.78819e-07
-0.291448
-5.06123e-07
-0.264507
5.22349e-08
-0.240063
8.72693e-07
-0.217872
2.18647e-06
-0.197738
4.28911e-06
-0.179465
7.552e-06
-0.16288
1.24371e-05
-0.147827
1.94849e-05
-0.134164
2.92322e-05
-0.121755
4.20768e-05
-0.110488
5.80882e-05
-0.100254
7.67099e-05
-0.090959
9.66366e-05
-0.082517
0.000115715
-0.0748451
0.00013134
-0.0678912
0.000141065
-0.0615769
0.000143305
-0.0558586
0.000137877
-0.0506761
0.000125856
-0.0459768
0.000109118
-0.0417198
8.99305e-05
-0.0378605
7.05107e-05
-0.0343598
5.28525e-05
-0.0311838
3.79195e-05
-0.0283019
2.50116e-05
-0.0256856
1.20195e-05
-0.0233112
-3.25064e-06
-0.0211553
-2.16129e-05
-0.0191997
-4.13291e-05
-0.0174248
-5.90609e-05
-0.0158144
-7.22061e-05
-0.0143526
-8.0923e-05
-0.0130257
-8.66476e-05
-0.0118217
-8.97962e-05
-0.0107294
-8.95826e-05
-0.00973721
-8.4277e-05
-0.00883458
-7.65159e-05
-0.00801711
-7.18898e-05
-0.00726631
-5.67776e-05
-0.00655511
-4.47436e-05
-0.00589663
-2.39955e-05
-0.473392
-1.4942e-06
-0.429607
-1.21168e-06
-0.389898
-1.31326e-06
-0.35385
-1.31065e-06
-0.321136
-9.51921e-07
-0.291448
-5.94088e-07
-0.264507
-7.81205e-08
-0.240063
6.59687e-07
-0.217873
1.82012e-06
-0.19774
3.66506e-06
-0.179467
6.54667e-06
-0.162883
1.09025e-05
-0.147832
1.72516e-05
-0.13417
2.61612e-05
-0.121764
3.81071e-05
-0.110499
5.33161e-05
-0.100268
7.15243e-05
-0.090974
9.16964e-05
-0.0825324
0.000112008
-0.0748594
0.000129933
-0.0679027
0.000142839
-0.0615845
0.000148667
-0.0558618
0.000146563
-0.0506754
0.000137124
-0.045973
0.000121965
-0.0417139
0.00010317
-0.0378535
8.29614e-05
-0.0343527
6.34536e-05
-0.0311774
4.64976e-05
-0.0282967
3.27501e-05
-0.0256817
2.10699e-05
-0.0233082
8.9641e-06
-0.0211526
-5.90782e-06
-0.019197
-2.43337e-05
-0.0174221
-4.41109e-05
-0.0158119
-6.16373e-05
-0.0143504
-7.44284e-05
-0.0130237
-8.2917e-05
-0.0118199
-8.8459e-05
-0.0107279
-9.12779e-05
-0.00973677
-9.00169e-05
-0.00883521
-8.36201e-05
-0.0080168
-7.67366e-05
-0.00727191
-6.62166e-05
-0.00656734
-4.45183e-05
-0.00591243
-2.89322e-05
-0.00531475
-1.45511e-05
-0.473391
-1.57438e-06
-0.429607
-1.22034e-06
-0.389898
-1.12527e-06
-0.353851
-1.21081e-06
-0.321137
-9.74371e-07
-0.291449
-6.5538e-07
-0.264508
-1.95775e-07
-0.240064
4.66585e-07
-0.217874
1.49777e-06
-0.197741
3.12737e-06
-0.179469
5.67314e-06
-0.162886
9.54913e-06
-0.147836
1.52555e-05
-0.134176
2.33533e-05
-0.121772
3.4383e-05
-0.110509
4.86984e-05
-0.100281
6.62534e-05
-0.0909888
8.63613e-05
-0.0825482
0.000107452
-0.0748746
0.000127251
-0.0679158
0.000143043
-0.0615941
0.000152401
-0.0558671
0.000153891
-0.0506763
0.000147465
-0.0459702
0.000134402
-0.0417086
0.000116672
-0.0378467
9.63707e-05
-0.0343453
7.55743e-05
-0.0311702
5.63048e-05
-0.0282905
4.0294e-05
-0.0256768
2.78969e-05
-0.0233046
1.75242e-05
-0.0211499
6.28722e-06
-0.0191946
-8.33292e-06
-0.0174196
-2.68494e-05
-0.0158093
-4.66332e-05
-0.0143481
-6.39374e-05
-0.0130217
-7.64349e-05
-0.011818
-8.47919e-05
-0.010726
-9.03373e-05
-0.00973546
-9.26201e-05
-0.0088353
-8.99203e-05
-0.00801711
-8.33135e-05
-0.00727401
-7.46096e-05
-0.00657938
-5.41791e-05
-0.00592518
-3.1698e-05
-0.00532878
-1.48533e-05
-0.00478964
-6.86401e-06
-0.47339
-1.55576e-06
-0.429608
-1.17299e-06
-0.389898
-9.27329e-07
-0.353851
-1.0182e-06
-0.321137
-9.35311e-07
-0.291449
-6.78768e-07
-0.264508
-2.91027e-07
-0.240064
2.91794e-07
-0.217874
1.21136e-06
-0.197742
2.65384e-06
-0.179471
4.913e-06
-0.162889
8.35959e-06
-0.14784
1.34739e-05
-0.134182
2.08127e-05
-0.12178
3.09318e-05
-0.110519
4.42958e-05
-0.100293
6.10425e-05
-0.0910033
8.07606e-05
-0.0825641
0.000102259
-0.0748906
0.000123451
-0.0679303
0.000141753
-0.0616055
0.000154472
-0.0558743
0.000159653
-0.050679
0.000156636
-0.0459689
0.00014615
-0.0417042
0.000129996
-0.0378404
0.000110293
-0.0343379
8.89929e-05
-0.0311626
6.79834e-05
-0.0282834
4.9219e-05
-0.0256709
3.43238e-05
-0.0233001
2.33369e-05
-0.0211466
1.42512e-05
-0.0191922
3.83578e-06
-0.0174174
-1.04999e-05
-0.015807
-2.91349e-05
-0.0143457
-4.89632e-05
-0.0130196
-6.60921e-05
-0.0118162
-7.83472e-05
-0.0107241
-8.67537e-05
-0.00973354
-9.2266e-05
-0.00883447
-9.34729e-05
-0.00801739
-8.96278e-05
-0.00727427
-8.30213e-05
-0.00658945
-6.44591e-05
-0.00593839
-4.08999e-05
-0.00534065
-1.98245e-05
-0.00480127
-3.21644e-06
-0.00431698
-9.10858e-07
-0.473389
-1.40964e-06
-0.429608
-1.06367e-06
-0.389899
-7.62647e-07
-0.353851
-8.08123e-07
-0.321137
-8.39233e-07
-0.291449
-6.61928e-07
-0.264508
-3.56736e-07
-0.240065
1.412e-07
-0.217875
9.5454e-07
-0.197743
2.23741e-06
-0.179473
4.24132e-06
-0.162891
7.31699e-06
-0.147844
1.18927e-05
-0.134187
1.85189e-05
-0.121787
2.77691e-05
-0.110529
4.01538e-05
-0.100305
5.5978e-05
-0.0910174
7.5075e-05
-0.0825799
9.65702e-05
-0.0749071
0.000118745
-0.0679459
0.000139093
-0.0616187
0.000154895
-0.0558836
0.000163751
-0.0506838
0.000164384
-0.0459692
0.000156952
-0.0417009
0.000142859
-0.0378346
0.000124232
-0.0343308
0.000103139
-0.0311549
8.12664e-05
-0.0282757
6.03217e-05
-0.0256639
4.22553e-05
-0.0232944
2.86145e-05
-0.0211424
1.91368e-05
-0.0191893
1.13712e-05
-0.0174152
1.7269e-06
-0.0158051
-1.24713e-05
-0.0143436
-3.12341e-05
-0.0130175
-5.10575e-05
-0.0118143
-6.79667e-05
-0.0107224
-8.01106e-05
-0.0097315
-8.88246e-05
-0.00883277
-9.39629e-05
-0.00801711
-9.37844e-05
-0.00727398
-8.99061e-05
-0.00659639
-7.6092e-05
-0.00595116
-5.16859e-05
-0.00535333
-2.82407e-05
-0.00481151
-9.51706e-06
-0.0043261
5.94312e-06
-0.00389202
3.45484e-06
-0.47339
-1.14502e-06
-0.429608
-9.00753e-07
-0.389899
-6.646e-07
-0.353851
-6.33112e-07
-0.321137
-7.20263e-07
-0.29145
-6.1163e-07
-0.264509
-3.89851e-07
-0.240065
2.08819e-08
-0.217876
7.30914e-07
-0.197744
1.86745e-06
-0.179474
3.65196e-06
-0.162893
6.39087e-06
-0.147847
1.04958e-05
-0.134192
1.64618e-05
-0.121793
2.48793e-05
-0.110537
3.63068e-05