/*--------------------------------*- C++ -*----------------------------------*\
  =========                 |
  \\      /  F ield         | OpenFOAM: The Open Source CFD Toolbox
   \\    /   O peration     | Website:  https://openfoam.org
    \\  /    A nd           | Version:  dev
     \\/     M anipulation  |
\*---------------------------------------------------------------------------*/
FoamFile
{
    version     2.0;
    format      ascii;
    class       volVectorField;
    location    "300";
    object      U;
}
// * * * * * * * * * * * * * * * * * * * * * * * * * * * * * * * * * * * * * //

dimensions      [0 1 -1 0 0 0 0];

internalField   nonuniform List<vector> 
29380
(
(51.0607 0.00103822 0)
(51.0609 0.000956277 0)
(51.0578 0.000747748 0)
(51.0612 0.000986781 0)
(51.0579 0.00102372 0)
(51.0669 0.00102723 0)
(51.0616 0.000961369 0)
(51.058 0.00135567 0)
(51.0671 0.000977368 0)
(51.0672 0.00117499 0)
(51.062 0.000890229 0)
(51.0581 0.00174785 0)
(51.067 0.00100634 0)
(51.0668 0.00110094 0)
(51.0703 0.00047992 0)
(51.0626 0.000755681 0)
(51.0582 0.00213819 0)
(51.0668 0.00108479 0)
(51.0665 0.00106936 0)
(51.0697 0.000432635 0)
(51.0743 0.000291932 0)
(51.0631 0.000560374 0)
(51.0583 0.002469 0)
(51.0665 0.00118452 0)
(51.0663 0.00112014 0)
(51.0693 0.000512648 0)
(51.0737 0.000276977 0)
(51.0773 -0.000390247 0)
(51.0637 0.000311484 0)
(51.0585 0.00268935 0)
(51.0661 0.00127311 0)
(51.0662 0.00121855 0)
(51.069 0.000724434 0)
(51.0733 0.000447031 0)
(51.0765 -0.000328882 0)
(51.0808 -0.000691061 0)
(51.0641 1.05889e-05 0)
(51.0588 0.00275746 0)
(51.0658 0.00132057 0)
(51.0661 0.00136774 0)
(51.069 0.00103761 0)
(51.073 0.000792956 0)
(51.076 -8.18238e-05 0)
(51.0797 -0.000598183 0)
(51.0833 -0.00145261 0)
(51.0645 -0.000344683 0)
(51.059 0.00264667 0)
(51.0655 0.00130256 0)
(51.0662 0.00155888 0)
(51.0692 0.00143173 0)
(51.0729 0.00127707 0)
(51.0756 0.000355733 0)
(51.0791 -0.000313784 0)
(51.082 -0.00133467 0)
(51.086 -0.00189254 0)
(51.0648 -0.000761592 0)
(51.0593 0.00234879 0)
(51.0653 0.00121216 0)
(51.0664 0.00178989 0)
(51.0695 0.00187426 0)
(51.0729 0.00187454 0)
(51.0753 0.000938695 0)
(51.0784 0.000185085 0)
(51.0812 -0.00102398 0)
(51.0845 -0.00176619 0)
(51.0881 -0.00265505 0)
(51.0649 -0.00124019 0)
(51.0597 0.00188479 0)
(51.0653 0.00105817 0)
(51.0668 0.00206391 0)
(51.07 0.00233246 0)
(51.073 0.00254751 0)
(51.0751 0.00164334 0)
(51.0779 0.000854471 0)
(51.0804 -0.000481358 0)
(51.0836 -0.0014525 0)
(51.0865 -0.00253077 0)
(51.0901 -0.003162 0)
(51.065 -0.00176883 0)
(51.06 0.00130568 0)
(51.0654 0.000866907 0)
(51.0673 0.0023892 0)
(51.0707 0.00277612 0)
(51.0733 0.00325856 0)
(51.0751 0.00243527 0)
(51.0775 0.001679 0)
(51.0796 0.000253661 0)
(51.0825 -0.000895325 0)
(51.0854 -0.00222623 0)
(51.0883 -0.00304317 0)
(51.0918 -0.00386089 0)
(51.0649 -0.00231756 0)
(51.0604 0.000693271 0)
(51.0658 0.000669383 0)
(51.0679 0.00276909 0)
(51.0714 0.00318167 0)
(51.0736 0.00397011 0)
(51.0752 0.00328079 0)
(51.0773 0.00262976 0)
(51.079 0.0011743 0)
(51.0816 -0.000127255 0)
(51.0841 -0.00167583 0)
(51.0871 -0.00276011 0)
(51.0899 -0.00376016 0)
(51.0934 -0.00436318 0)
(51.0648 -0.00284443 0)
(51.0608 0.000145374 0)
(51.0664 0.000494605 0)
(51.0686 0.00318969 0)
(51.0722 0.00353081 0)
(51.0741 0.00464621 0)
(51.0755 0.00414442 0)
(51.0773 0.00367578 0)
(51.0786 0.00225834 0)
(51.0807 0.000856716 0)
(51.083 -0.000901105 0)
(51.0857 -0.00223713 0)
(51.0886 -0.00351024 0)
(51.0914 -0.00428624 0)
(51.0947 -0.00496819 0)
(51.0646 -0.00330396 0)
(51.0612 -0.000241679 0)
(51.0671 0.000356219 0)
(51.0693 0.00361082 0)
(51.0729 0.00380972 0)
(51.0747 0.00525344 0)
(51.0759 0.00499037 0)
(51.0774 0.00477944 0)
(51.0784 0.0034794 0)
(51.0801 0.00204508 0)
(51.0819 0.000116099 0)
(51.0844 -0.00148483 0)
(51.087 -0.00303406 0)
(51.09 -0.00407867 0)
(51.0926 -0.00491945 0)
(51.0958 -0.00541792 0)
(51.0645 -0.00366128 0)
(51.0616 -0.000398343 0)
(51.0679 0.000251833 0)
(51.07 0.00396448 0)
(51.0736 0.00400528 0)
(51.0754 0.00576151 0)
(51.0765 0.00578423 0)
(51.0778 0.00589971 0)
(51.0784 0.00480214 0)
(51.0796 0.00342052 0)
(51.081 0.00137769 0)
(51.0831 -0.000471748 0)
(51.0855 -0.00232967 0)
(51.0883 -0.00366508 0)
(51.0912 -0.00475915 0)
(51.0938 -0.00540427 0)
(51.0968 -0.00591426 0)
(51.0644 -0.00390301 0)
(51.0621 -0.000301042 0)
(51.0687 0.00016196 0)
(51.0707 0.00416875 0)
(51.0742 0.00410708 0)
(51.0761 0.0061456 0)
(51.0772 0.0064943 0)
(51.0783 0.00699293 0)
(51.0786 0.0061835 0)
(51.0793 0.00495273 0)
(51.0802 0.00287843 0)
(51.0819 0.00081992 0)
(51.084 -0.00135309 0)
(51.0866 -0.00303113 0)
(51.0894 -0.00442014 0)
(51.0922 -0.00529629 0)
(51.0947 -0.00593825 0)
(51.0976 -0.00628827 0)
(51.0644 -0.00404223 0)
(51.0625 1.73911e-05 0)
(51.0695 5.99579e-05 0)
(51.0713 0.00414678 0)
(51.0748 0.00410732 0)
(51.0768 0.00638922 0)
(51.078 0.00709414 0)
(51.079 0.00801746 0)
(51.079 0.00757645 0)
(51.0793 0.00660089 0)
(51.0797 0.00459806 0)
(51.0808 0.0024008 0)
(51.0825 -7.02835e-05 0)
(51.0848 -0.00212223 0)
(51.0875 -0.00387395 0)
(51.0904 -0.00504292 0)
(51.0932 -0.00588272 0)
(51.0956 -0.00635791 0)
(51.0983 -0.00667124 0)
(51.0645 -0.00411651 0)
(51.0629 0.000469889 0)
(51.07 -8.14236e-05 0)
(51.0718 0.00385444 0)
(51.0753 0.00400624 0)
(51.0776 0.00648707 0)
(51.0789 0.00756388 0)
(51.0799 0.0089351 0)
(51.0797 0.00893146 0)
(51.0796 0.00831467 0)
(51.0794 0.00650074 0)
(51.0799 0.00426387 0)
(51.0811 0.00154684 0)
(51.0831 -0.0008874 0)
(51.0856 -0.00305799 0)
(51.0884 -0.00459948 0)
(51.0913 -0.00572209 0)
(51.0941 -0.00635515 0)
(51.0964 -0.0067918 0)
(51.0989 -0.00695901 0)
(51.0646 -0.00417903 0)
(51.0632 0.000932756 0)
(51.0705 -0.000281033 0)
(51.0723 0.0032942 0)
(51.0757 0.00381025 0)
(51.0784 0.00644653 0)
(51.0799 0.00789218 0)
(51.0809 0.0097149 0)
(51.0806 0.0102012 0)
(51.0801 0.0100381 0)
(51.0794 0.00853697 0)
(51.0793 0.00638366 0)
(51.0799 0.00350839 0)
(51.0814 0.000720025 0)
(51.0836 -0.00190595 0)
(51.0863 -0.00389914 0)
(51.0892 -0.00539099 0)
(51.0921 -0.00629395 0)
(51.0948 -0.0068394 0)
(51.097 -0.00713933 0)
(51.0993 -0.00723341 0)
(51.0647 -0.00428977 0)
(51.0635 0.00126811 0)
(51.0707 -0.000547799 0)
(51.0728 0.00252428 0)
(51.0762 0.00353411 0)
(51.0792 0.00628538 0)
(51.0809 0.00807582 0)
(51.082 0.0103337 0)
(51.0817 0.011342 0)
(51.081 0.0117132 0)
(51.0798 0.010647 0)
(51.079 0.00871601 0)
(51.0789 0.00580211 0)
(51.0798 0.00272897 0)
(51.0816 -0.000352304 0)
(51.084 -0.00286085 0)
(51.0869 -0.00482212 0)
(51.0899 -0.00608266 0)
(51.0928 -0.00688275 0)
(51.0955 -0.00723434 0)
(51.0976 -0.00747982 0)
(51.0996 -0.00743614 0)
(51.0648 -0.00450259 0)
(51.0637 0.00135544 0)
(51.0707 -0.000879603 0)
(51.0732 0.00164337 0)
(51.0767 0.00319373 0)
(51.08 0.00602863 0)
(51.0819 0.00811989 0)
(51.0832 0.0107784 0)
(51.0829 0.012318 0)
(51.0821 0.0132839 0)
(51.0805 0.0127643 0)
(51.0791 0.0112013 0)
(51.0782 0.0083935 0)
(51.0784 0.0051444 0)
(51.0796 0.00165314 0)
(51.0817 -0.00140103 0)
(51.0845 -0.00392204 0)
(51.0875 -0.00565804 0)
(51.0906 -0.00679455 0)
(51.0935 -0.00738823 0)
(51.0961 -0.00761724 0)
(51.098 -0.00775792 0)
(51.0998 -0.00761587 0)
(51.0649 -0.00485787 0)
(51.0638 0.00111584 0)
(51.0707 -0.00126596 0)
(51.0735 0.000774355 0)
(51.0772 0.00280608 0)
(51.0808 0.00570217 0)
(51.083 0.00803548 0)
(51.0845 0.0110447 0)
(51.0843 0.0131021 0)
(51.0834 0.0146995 0)
(51.0815 0.014821 0)
(51.0796 0.0137695 0)
(51.078 0.0112286 0)
(51.0773 0.00794485 0)
(51.0778 0.00413395 0)
(51.0793 0.000551985 0)
(51.0818 -0.00258992 0)
(51.0848 -0.00491542 0)
(51.088 -0.00652002 0)
(51.0912 -0.00742656 0)
(51.0941 -0.00788717 0)
(51.0966 -0.0079306 0)
(51.0983 -0.00802037 0)
(51.0998 -0.00774137 0)
(51.0649 -0.0053699 0)
(51.064 0.000533581 0)
(51.0706 -0.00168915 0)
(51.0738 3.32226e-05 0)
(51.0777 0.00238362 0)
(51.0815 0.00532954 0)
(51.0839 0.00783892 0)
(51.0858 0.011138 0)
(51.0858 0.0136782 0)
(51.085 0.0159184 0)
(51.0829 0.0167517 0)
(51.0804 0.0163442 0)
(51.0781 0.0142376 0)
(51.0766 0.0110846 0)
(51.0762 0.00708459 0)
(51.0771 0.00304305 0)
(51.0791 -0.000731582 0)
(51.0819 -0.00373958 0)
(51.0852 -0.00594659 0)
(51.0885 -0.00730714 0)
(51.0917 -0.0080531 0)
(51.0946 -0.00832187 0)
(51.097 -0.00822145 0)
(51.0985 -0.0082364 0)
(51.0997 -0.00784395 0)
(51.0649 -0.0060191 0)
(51.0641 -0.000337814 0)
(51.0705 -0.00212613 0)
(51.0741 -0.000490872 0)
(51.0782 0.00194002 0)
(51.0821 0.00492843 0)
(51.0849 0.00754902 0)
(51.087 0.0110713 0)
(51.0873 0.0140418 0)
(51.0867 0.0169106 0)
(51.0845 0.0184987 0)
(51.0817 0.018848 0)
(51.0787 0.0173408 0)
(51.0763 0.0144996 0)
(51.075 0.010472 0)
(51.075 0.00608371 0)
(51.0764 0.00171883 0)
(51.0788 -0.00201431 0)
(51.082 -0.00494689 0)
(51.0855 -0.00691086 0)
(51.0889 -0.00808916 0)
(51.0922 -0.00861648 0)
(51.095 -0.00874036 0)
(51.0973 -0.00845586 0)
(51.0985 -0.00843427 0)
(51.0994 -0.00790839 0)
(51.0648 -0.00674582 0)
(51.0642 -0.00137554 0)
(51.0704 -0.00255049 0)
(51.0744 -0.000756741 0)
(51.0788 0.00148999 0)
(51.0828 0.00451311 0)
(51.0858 0.00718713 0)
(51.0882 0.0108647 0)
(51.0889 0.0141999 0)
(51.0885 0.0176589 0)
(51.0864 0.0200152 0)
(51.0833 0.0212077 0)
(51.0798 0.020453 0)
(51.0765 0.0181109 0)
(51.0742 0.0142395 0)
(51.0733 0.00965381 0)
(51.0738 0.00479142 0)
(51.0757 0.00034926 0)
(51.0786 -0.00338323 0)
(51.0821 -0.00610247 0)
(51.0857 -0.00787236 0)
(51.0893 -0.00880748 0)
(51.0925 -0.00916402 0)
(51.0954 -0.00910894 0)
(51.0975 -0.00866165 0)
(51.0984 -0.00859964 0)
(51.0989 -0.00795529 0)
(51.0646 -0.00745469 0)
(51.0644 -0.00241341 0)
(51.0705 -0.00293644 0)
(51.0747 -0.000776092 0)
(51.0792 0.00105641 0)
(51.0833 0.00409497 0)
(51.0866 0.00677511 0)
(51.0894 0.0105431 0)
(51.0904 0.0141697 0)
(51.0904 0.0181605 0)
(51.0885 0.0212687 0)
(51.0853 0.0233583 0)
(51.0813 0.0234884 0)
(51.0773 0.021831 0)
(51.074 0.0183147 0)
(51.072 0.0137078 0)
(51.0716 0.00848049 0)
(51.0727 0.00339995 0)
(51.0751 -0.0011443 0)
(51.0784 -0.00472392 0)
(51.0821 -0.00726251 0)
(51.0859 -0.00876909 0)
(51.0895 -0.00950642 0)
(51.0928 -0.00966385 0)
(51.0956 -0.0094548 0)
(51.0975 -0.00882096 0)
(51.098 -0.00875149 0)
(51.0983 -0.00797747 0)
(51.0645 -0.00803035 0)
(51.0645 -0.00326807 0)
(51.0706 -0.00326526 0)
(51.0749 -0.00061766 0)
(51.0796 0.000665337 0)
(51.0839 0.00368628 0)
(51.0873 0.00633527 0)
(51.0904 0.0101346 0)
(51.0919 0.0139766 0)
(51.0923 0.0184247 0)
(51.0907 0.0222418 0)
(51.0876 0.0252473 0)
(51.0833 0.0263654 0)
(51.0785 0.0255675 0)
(51.0743 0.0226129 0)
(51.0712 0.0181806 0)
(51.0697 0.0127496 0)
(51.0699 0.00714466 0)
(51.0715 0.00183814 0)
(51.0744 -0.00264033 0)
(51.0781 -0.0060837 0)
(51.0821 -0.00836173 0)
(51.086 -0.00964052 0)
(51.0896 -0.0101554 0)
(51.0929 -0.010143 0)
(51.0957 -0.00975872 0)
(51.0973 -0.00895388 0)
(51.0975 -0.00888291 0)
(51.0975 -0.00798902 0)
(51.0643 -0.00837693 0)
(51.0647 -0.00379435 0)
(51.0708 -0.00353084 0)
(51.0751 -0.000390869 0)
(51.08 0.000341705 0)
(51.0844 0.00329761 0)
(51.088 0.00588746 0)
(51.0915 0.00966782 0)
(51.0934 0.0136519 0)
(51.0942 0.0184725 0)
(51.093 0.0229323 0)
(51.0901 0.0268374 0)
(51.0856 0.0290108 0)
(51.0804 0.0292267 0)
(51.0752 0.027042 0)
(51.0709 0.0229959 0)
(51.0683 0.0175433 0)
(51.0674 0.0115572 0)
(51.0682 0.00558494 0)
(51.0704 0.000236107 0)
(51.0738 -0.00417787 0)
(51.0778 -0.00739376 0)
(51.082 -0.00943155 0)
(51.086 -0.0104546 0)
(51.0896 -0.0107809 0)
(51.0929 -0.0105832 0)
(51.0956 -0.010039 0)
(51.0969 -0.00905001 0)
(51.0967 -0.00900674 0)
(51.0965 -0.00798681 0)
(51.0642 -0.00844713 0)
(51.0649 -0.0039282 0)
(51.071 -0.00374392 0)
(51.0753 -0.000230301 0)
(51.0803 9.59693e-05 0)
(51.0848 0.00293575 0)
(51.0886 0.00544731 0)
(51.0924 0.00916897 0)
(51.0947 0.0132282 0)
(51.096 0.0183323 0)
(51.0953 0.0233513 0)
(51.0928 0.0281078 0)
(51.0884 0.0313648 0)
(51.0827 0.0327188 0)
(51.0767 0.0315039 0)
(51.0713 0.0280686 0)
(51.0674 0.0227952 0)
(51.0653 0.0165879 0)
(51.0651 0.0100752 0)
(51.0666 0.00393815 0)
(51.0694 -0.00143616 0)
(51.0732 -0.00568298 0)
(51.0775 -0.00867753 0)
(51.0818 -0.0104375 0)
(51.0858 -0.0112362 0)
(51.0895 -0.0113662 0)
(51.0928 -0.0110018 0)
(51.0953 -0.0102829 0)
(51.0962 -0.00912407 0)
(51.0956 -0.00912099 0)
(51.0954 -0.00798106 0)
(51.0641 -0.00827561 0)
(51.065 -0.00371991 0)
(51.0713 -0.0039265 0)
(51.0755 -0.000255331 0)
(51.0805 -8.2641e-05 0)
(51.0852 0.00259792 0)
(51.0892 0.00502188 0)
(51.0932 0.00865844 0)
(51.096 0.0127372 0)
(51.0978 0.0180375 0)
(51.0977 0.0235208 0)
(51.0957 0.0290538 0)
(51.0914 0.0333828 0)
(51.0855 0.0359614 0)
(51.0788 0.0358987 0)
(51.0724 0.0333062 0)
(51.0671 0.0284335 0)
(51.0638 0.0221814 0)
(51.0624 0.0152641 0)
(51.0629 0.00845009 0)
(51.065 0.00218775 0)
(51.0684 -0.00309842 0)
(51.0726 -0.00717256 0)
(51.0771 -0.00989604 0)
(51.0815 -0.0113989 0)
(51.0855 -0.0119687 0)
(51.0892 -0.0119283 0)
(51.0925 -0.0113867 0)
(51.0948 -0.0105027 0)
(51.0953 -0.00917162 0)
(51.0944 -0.00923673 0)
(51.0941 -0.00797028 0)
(51.064 -0.00797917 0)
(51.0651 -0.00333332 0)
(51.0714 -0.00410492 0)
(51.0756 -0.00053279 0)
(51.0806 -0.000229187 0)
(51.0855 0.00227046 0)
(51.0897 0.00460899 0)
(51.094 0.00814795 0)
(51.0972 0.012204 0)
(51.0995 0.0176209 0)
(51.1 0.02347 0)
(51.0985 0.0296854 0)
(51.0947 0.0350385 0)
(51.0888 0.0388857 0)
(51.0815 0.0401268 0)
(51.0741 0.0386074 0)
(51.0676 0.0343796 0)
(51.0628 0.0282819 0)
(51.0602 0.0211021 0)
(51.0596 0.0137242 0)
(51.0608 0.00667751 0)
(51.0635 0.00041902 0)
(51.0673 -0.00476143 0)
(51.0719 -0.00860183 0)
(51.0766 -0.0110633 0)
(51.081 -0.0122992 0)
(51.085 -0.0126681 0)
(51.0887 -0.0124567 0)
(51.092 -0.0117482 0)
(51.094 -0.0106899 0)
(51.094 -0.00920663 0)
(51.0929 -0.009353 0)
(51.0928 -0.0079618 0)
(51.0639 -0.00772052 0)
(51.0652 -0.00299956 0)
(51.0716 -0.0042978 0)
(51.0758 -0.00104515 0)
(51.0808 -0.000388304 0)
(51.0858 0.00193094 0)
(51.0901 0.00419672 0)
(51.0947 0.00763925 0)
(51.0982 0.0116458 0)
(51.1011 0.0171126 0)
(51.1022 0.0232311 0)
(51.1014 0.0300238 0)
(51.0981 0.0363223 0)
(51.0924 0.0414377 0)
(51.0848 0.0440955 0)
(51.0765 0.0438659 0)
(51.0687 0.0405445 0)
(51.0625 0.0348326 0)
(51.0585 0.0275498 0)
(51.0567 0.0197124 0)
(51.0569 0.0119791 0)
(51.0588 0.00485397 0)
(51.0621 -0.00136797 0)
(51.0663 -0.00637479 0)
(51.0711 -0.00998027 0)
(51.076 -0.0121592 0)
(51.0804 -0.0131491 0)
(51.0843 -0.0133257 0)
(51.088 -0.0129626 0)
(51.0912 -0.0120766 0)
(51.093 -0.0108548 0)
(51.0925 -0.00922608 0)
(51.0912 -0.00948019 0)
(51.0915 -0.00795356 0)
(51.0639 -0.00766355 0)
(51.0653 -0.00293128 0)
(51.0716 -0.00450738 0)
(51.076 -0.00168387 0)
(51.0809 -0.000599045 0)
(51.0861 0.00155888 0)
(51.0905 0.00376884 0)
(51.0953 0.00712513 0)
(51.0992 0.0110691 0)
(51.1026 0.0165343 0)
(51.1044 0.0228352 0)
(51.1043 0.0300975 0)
(51.1016 0.0372411 0)
(51.0963 0.0435833 0)
(51.0886 0.0477237 0)
(51.0797 0.0489714 0)
(51.0707 0.0468248 0)
(51.063 0.0417673 0)
(51.0574 0.0345774 0)
(51.0542 0.026388 0)
(51.0534 0.0180361 0)
(51.0544 0.0101364 0)
(51.0569 0.0029893 0)
(51.0606 -0.00311946 0)
(51.0653 -0.00794277 0)
(51.0703 -0.0112828 0)
(51.0752 -0.0131911 0)
(51.0795 -0.0139415 0)
(51.0834 -0.013953 0)
(51.0872 -0.013436 0)
(51.0903 -0.012378 0)
(51.0916 -0.0109896 0)
(51.0906 -0.00924519 0)
(51.0894 -0.00961465 0)
(51.0902 -0.00795109 0)
(51.0638 -0.00790644 0)
(51.0654 -0.00324874 0)
(51.0716 -0.0047196 0)
(51.0761 -0.00227896 0)
(51.0811 -0.00087369 0)
(51.0863 0.00114446 0)
(51.0908 0.00331179 0)
(51.0959 0.00659327 0)
(51.1001 0.0104717 0)
(51.104 0.0159001 0)
(51.1064 0.022309 0)
(51.107 0.0299375 0)
(51.1051 0.0378132 0)
(51.1003 0.0453054 0)
(51.0929 0.0509454 0)
(51.0835 0.0538176 0)
(51.0735 0.0531053 0)
(51.0642 0.0490017 0)
(51.0569 0.0421514 0)
(51.0523 0.0337486 0)
(51.0502 0.0248274 0)
(51.0502 0.0161943 0)
(51.052 0.00822223 0)
(51.0551 0.00114665 0)
(51.0592 -0.00483085 0)
(51.0641 -0.00943704 0)
(51.0693 -0.0125143 0)
(51.0742 -0.0141477 0)
(51.0784 -0.0146852 0)
(51.0824 -0.0145432 0)
(51.0862 -0.0138825 0)
(51.089 -0.0126416 0)
(51.0899 -0.0111071 0)
(51.0884 -0.00926009 0)
(51.0875 -0.00976746 0)
(51.089 -0.00794998 0)
(51.0637 -0.00843181 0)
(51.0654 -0.00390598 0)
(51.0716 -0.00490767 0)
(51.0762 -0.00266664 0)
(51.0812 -0.00119088 0)
(51.0865 0.000698292 0)
(51.0911 0.00282206 0)
(51.0964 0.00603295 0)
(51.1009 0.00984509 0)
(51.1052 0.0152147 0)
(51.1082 0.0216726 0)
(51.1096 0.0295735 0)
(51.1085 0.0380649 0)
(51.1045 0.0466046 0)
(51.0975 0.053714 0)
(51.0879 0.0583072 0)
(51.077 0.0592613 0)
(51.0663 0.0564271 0)
(51.0573 0.0502194 0)
(51.0509 0.0418013 0)
(51.0474 0.0323763 0)
(51.0464 0.0230016 0)
(51.0473 0.0142305 0)
(51.0497 0.00630923 0)
(51.0533 -0.000662662 0)
(51.0578 -0.00647286 0)
(51.063 -0.0108592 0)
(51.0683 -0.0136585 0)
(51.073 -0.0150373 0)
(51.0772 -0.0153779 0)
(51.0811 -0.015103 0)
(51.085 -0.0142904 0)
(51.0875 -0.0128749 0)
(51.0878 -0.0112001 0)
(51.086 -0.00928784 0)
(51.0856 -0.00993006 0)
(51.0878 -0.00795232 0)
(51.0636 -0.0091058 0)
(51.0655 -0.00470816 0)
(51.0717 -0.00504325 0)
(51.0763 -0.00274736 0)
(51.0813 -0.00150469 0)
(51.0867 0.00024922 0)
(51.0914 0.00231064 0)
(51.0968 0.00544046 0)
(51.1016 0.00918162 0)
(51.1064 0.0144782 0)
(51.1099 0.0209393 0)
(51.1121 0.0290311 0)
(51.1119 0.038025 0)
(51.1088 0.0474928 0)
(51.1023 0.0560013 0)
(51.0929 0.0623576 0)
(51.0814 0.0651679 0)
(51.0694 0.0639148 0)
(51.0586 0.0586974 0)
(51.0502 0.050539 0)
(51.045 0.0407352 0)
(51.0427 0.0306018 0)
(51.0428 0.0209727 0)
(51.0446 0.0122326 0)
(51.0475 0.00442182 0)
(51.0515 -0.00240187 0)
(51.0563 -0.00804187 0)
(51.0617 -0.012192 0)
(51.067 -0.0147218 0)
(51.0717 -0.0158545 0)
(51.0758 -0.0160261 0)
(51.0798 -0.0156246 0)
(51.0836 -0.0146638 0)
(51.0857 -0.0130682 0)
(51.0854 -0.0112841 0)
(51.0835 -0.00931942 0)
(51.0838 -0.010113 0)
(51.0864 -0.00795233 0)
(51.0635 -0.00970182 0)
(51.0655 -0.00536451 0)
(51.0717 -0.00511696 0)
(51.0764 -0.00254686 0)
(51.0814 -0.00176227 0)
(51.0868 -0.000166109 0)
(51.0916 0.0018016 0)
(51.0972 0.00482413 0)
(51.1023 0.00847871 0)
(51.1074 0.0136895 0)
(51.1115 0.0201182 0)
(51.1145 0.0283312 0)
(51.1151 0.0377226 0)
(51.113 0.0479921 0)
(51.1073 0.0577967 0)
(51.0983 0.0659049 0)
(51.0865 0.0707066 0)
(51.0734 0.0713202 0)
(51.0608 0.0674657 0)
(51.0504 0.0599169 0)
(51.0432 0.0499518 0)
(51.0394 0.0390926 0)
(51.0384 0.0285036 0)
(51.0395 0.0188467 0)
(51.042 0.0102393 0)
(51.0454 0.00260367 0)
(51.0497 -0.00406603 0)
(51.0548 -0.00952304 0)
(51.0604 -0.0134375 0)
(51.0657 -0.0156953 0)
(51.0702 -0.0166098 0)
(51.0743 -0.0166293 0)
(51.0784 -0.0161109 0)
(51.082 -0.0149911 0)
(51.0836 -0.0132304 0)
(51.0827 -0.0113493 0)
(51.0809 -0.00937425 0)
(51.082 -0.0102957 0)
(51.0844 -0.00795532 0)
(51.0634 -0.0099983 0)
(51.0656 -0.00560928 0)
(51.0719 -0.00514237 0)
(51.0765 -0.00221632 0)
(51.0815 -0.00193262 0)
(51.0869 -0.000517047 0)
(51.0919 0.00132344 0)
(51.0975 0.00420391 0)
(51.1028 0.00774509 0)
(51.1083 0.0128525 0)
(51.113 0.0192183 0)
(51.1166 0.0274916 0)
(51.1182 0.037184 0)
(51.1171 0.0481275 0)
(51.1124 0.0591036 0)
(51.104 0.0689043 0)
(51.0922 0.0757729 0)
(51.0783 0.0784947 0)
(51.0642 0.0763759 0)
(51.0517 0.0698433 0)
(51.0422 0.0600356 0)
(51.0364 0.0485856 0)
(51.0341 0.0369646 0)
(51.0344 0.0262068 0)
(51.0365 0.0166796 0)
(51.0396 0.00830724 0)
(51.0434 0.000867126 0)
(51.0479 -0.00563772 0)
(51.0532 -0.0109147 0)
(51.0589 -0.0145876 0)
(51.0642 -0.0165898 0)
(51.0686 -0.0173023 0)
(51.0727 -0.0171917 0)
(51.0769 -0.0165542 0)
(51.0803 -0.0152762 0)
(51.0813 -0.0133525 0)
(51.0799 -0.0114166 0)
(51.0784 -0.00943155 0)
(51.0796 -0.0104889 0)
(51.0822 -0.00796753 0)
(51.0633 -0.00987202 0)
(51.0657 -0.00532693 0)
(51.072 -0.00516772 0)
(51.0766 -0.0019896 0)
(51.0816 -0.00202798 0)
(51.087 -0.00079525 0)
(51.092 0.000899935 0)
(51.0978 0.00360586 0)
(51.1033 0.00700052 0)
(51.1091 0.0119795 0)
(51.1143 0.018252 0)
(51.1186 0.02653 0)
(51.1211 0.0364346 0)
(51.1211 0.0479282 0)
(51.1175 0.0599372 0)
(51.1099 0.0713308 0)
(51.0985 0.0802803 0)
(51.0841 0.0852939 0)
(51.0686 0.0852588 0)
(51.054 0.0801798 0)
(51.0421 0.070937 0)
(51.0341 0.0591548 0)
(51.03 0.0465341 0)
(51.0292 0.0344913 0)
(51.0308 0.0237869 0)
(51.0337 0.0145442 0)
(51.0373 0.00645695 0)
(51.0414 -0.000768591 0)
(51.0461 -0.0071167 0)
(51.0516 -0.0122114 0)
(51.0573 -0.0156481 0)
(51.0625 -0.0174031 0)
(51.0669 -0.0179433 0)
(51.0711 -0.0177123 0)
(51.0754 -0.0169553 0)
(51.0785 -0.0155099 0)
(51.0788 -0.0134488 0)
(51.0772 -0.0114703 0)
(51.0757 -0.0095091 0)
(51.076 -0.0106554 0)
(51.0822 -0.00805223 0)
(51.0632 -0.00935146 0)
(51.0658 -0.0046041 0)
(51.072 -0.00525407 0)
(51.0766 -0.00210117 0)
(51.0816 -0.00210814 0)
(51.0871 -0.00102267 0)
(51.0922 0.0005387 0)
(51.0981 0.00305506 0)
(51.1038 0.00627224 0)
(51.1099 0.0110924 0)
(51.1154 0.0172386 0)
(51.1204 0.0254674 0)
(51.1238 0.0355001 0)
(51.1249 0.0474236 0)
(51.1225 0.0603202 0)
(51.116 0.0731767 0)
(51.1051 0.0841639 0)
(51.0906 0.0915857 0)
(51.0741 0.0939375 0)
(51.0575 0.0907532 0)
(51.0432 0.082546 0)
(51.0326 0.0708071 0)
(51.0262 0.0573619 0)
(51.024 0.043951 0)
(51.0248 0.0317723 0)
(51.0275 0.0213378 0)
(51.0312 0.0124744 0)
(51.0351 0.00471676 0)
(51.0394 -0.00230023 0)
(51.0443 -0.00849673 0)
(51.0499 -0.0134153 0)
(51.0557 -0.0166181 0)
(51.0607 -0.0181484 0)
(51.0651 -0.0185317 0)
(51.0695 -0.0181944 0)
(51.0739 -0.0173089 0)
(51.0766 -0.015698 0)
(51.0763 -0.0135108 0)
(51.0745 -0.0115313 0)
(51.0719 -0.00955336 0)
(51.073 -0.0108707 0)
(51.0739 -0.00814321 0)
(51.0632 -0.00868446 0)
(51.0658 -0.00374798 0)
(51.0721 -0.00544722 0)
(51.0767 -0.00267346 0)
(51.0816 -0.00226718 0)
(51.0872 -0.00124583 0)
(51.0923 0.000227333 0)
(51.0983 0.00256552 0)
(51.1042 0.0055881 0)
(51.1105 0.0102186 0)
(51.1165 0.0162042 0)
(51.1221 0.0243301 0)
(51.1263 0.0344096 0)
(51.1284 0.0466477 0)
(51.1273 0.0602835 0)
(51.122 0.0744501 0)
(51.1121 0.0873815 0)
(51.0979 0.0972578 0)
(51.0806 0.102236 0)
(51.0623 0.101365 0)
(51.0455 0.0947009 0)
(51.0321 0.0834732 0)
(51.0232 0.0695195 0)
(51.0189 0.0548161 0)
(51.0185 0.0409562 0)
(51.0208 0.0289213 0)
(51.0246 0.0189096 0)
(51.0288 0.0105107 0)
(51.0329 0.0030927 0)
(51.0373 -0.00372223 0)
(51.0424 -0.00978221 0)
(51.0481 -0.0145272 0)
(51.0539 -0.0175055 0)
(51.0589 -0.0188255 0)
(51.0633 -0.0190806 0)
(51.068 -0.0186382 0)
(51.0725 -0.017614 0)
(51.0748 -0.0158361 0)
(51.0741 -0.0135558 0)
(51.0711 -0.0115536 0)
(51.0671 -0.00961953 0)
(51.0778 -0.0111038 0)
(50.9832 -0.00774408 0)
(51.0632 -0.00819288 0)
(51.0659 -0.00316389 0)
(51.0721 -0.00576611 0)
(51.0767 -0.00365652 0)
(51.0817 -0.00258812 0)
(51.0872 -0.00152155 0)
(51.0925 -6.39603e-05 0)
(51.0985 0.00213506 0)
(51.1045 0.00496735 0)
(51.1111 0.00938562 0)
(51.1175 0.0151778 0)
(51.1236 0.0231502 0)
(51.1286 0.0331972 0)
(51.1318 0.0456375 0)
(51.1319 0.0598646 0)
(51.128 0.0751731 0)
(51.1192 0.089913 0)
(51.1056 0.102222 0)
(51.088 0.109991 0)
(51.0684 0.111805 0)
(51.0492 0.1072 0)
(51.0329 0.0970194 0)
(51.0211 0.0829887 0)
(51.0142 0.0672312 0)
(51.0121 0.051657 0)
(51.0135 0.0376887 0)
(51.0172 0.0260138 0)
(51.0219 0.0165619 0)
(51.0265 0.00866709 0)
(51.0308 0.00159627 0)
(51.0353 -0.00503872 0)
(51.0404 -0.0109731 0)
(51.0463 -0.0155514 0)
(51.052 -0.0183123 0)
(51.057 -0.0194507 0)
(51.0616 -0.0195914 0)
(51.0667 -0.0190448 0)
(51.0712 -0.017869 0)
(51.0734 -0.0159375 0)
(51.0718 -0.0135568 0)
(51.0659 -0.0115606 0)
(51.0651 -0.00974218 0)
(51.0613 -0.0109917 0)
(50.7705 -0.00648251 0)
(51.0631 -0.00818227 0)
(51.0659 -0.00316319 0)
(51.0721 -0.00615435 0)
(51.0768 -0.0048124 0)
(51.0817 -0.00310262 0)
(51.0873 -0.0018872 0)
(51.0926 -0.000371931 0)
(51.0987 0.00174454 0)
(51.1048 0.00441385 0)
(51.1116 0.00861278 0)
(51.1183 0.0141868 0)
(51.125 0.0219609 0)
(51.1308 0.0319021 0)
(51.1349 0.0444369 0)
(51.1363 0.0591087 0)
(51.1338 0.0753818 0)
(51.1264 0.0917609 0)
(51.1137 0.106416 0)
(51.0962 0.117061 0)
(51.0756 0.121863 0)
(51.0544 0.119813 0)
(51.0352 0.111259 0)
(51.0201 0.0976745 0)
(51.0103 0.0812332 0)
(51.0058 0.0640955 0)
(51.0058 0.0480486 0)
(51.009 0.0342491 0)
(51.014 0.0231271 0)
(51.0194 0.0143188 0)
(51.0243 0.00696276 0)
(51.0287 0.000222169 0)
(51.0332 -0.0062513 0)
(51.0384 -0.0120752 0)
(51.0444 -0.0164899 0)
(51.0501 -0.0190496 0)
(51.055 -0.0200285 0)
(51.0601 -0.0200758 0)
(51.0656 -0.0194127 0)
(51.0704 -0.018083 0)
(51.0725 -0.0159932 0)
(51.0678 -0.0135042 0)
(51.0612 -0.011587 0)
(51.0642 -0.00996082 0)
(50.9116 -0.00950781 0)
(50.4884 -0.00500655 0)
(51.0632 -0.00887743 0)
(51.0658 -0.00386924 0)
(51.072 -0.00652424 0)
(51.0768 -0.00576945 0)
(51.0817 -0.00376672 0)
(51.0873 -0.00234095 0)
(51.0927 -0.00072347 0)
(51.0989 0.00136377 0)
(51.1051 0.00391429 0)
(51.1121 0.00790604 0)
(51.1191 0.0132499 0)
(51.1262 0.020793 0)
(51.1327 0.0305645 0)
(51.1378 0.0430935 0)
(51.1405 0.0580677 0)
(51.1394 0.0751245 0)
(51.1335 0.092949 0)
(51.122 0.10981 0)
(51.1051 0.123333 0)
(51.084 0.131343 0)
(51.061 0.132294 0)
(51.039 0.12596 0)
(51.0206 0.11342 0)
(51.0074 0.0967706 0)
(51 0.078364 0)
(50.998 0.0603026 0)
(51.0001 0.0441225 0)
(51.005 0.0307414 0)
(51.0111 0.0203071 0)
(51.0171 0.0122146 0)
(51.0222 0.00539612 0)
(51.0265 -0.00102756 0)
(51.031 -0.00736799 0)
(51.0364 -0.0130914 0)
(51.0424 -0.0173494 0)
(51.048 -0.0197234 0)
(51.0531 -0.020576 0)
(51.0586 -0.0205295 0)
(51.0647 -0.0197523 0)
(51.0705 -0.0182611 0)
(51.0708 -0.0159796 0)
(51.0617 -0.0134308 0)
(51.0637 -0.0117296 0)
(50.9733 -0.00940022 0)
(50.6552 -0.00722958 0)
(50.1677 -0.00357264 0)
(51.063 -0.0101036 0)
(51.0659 -0.00515354 0)
(51.0719 -0.0067794 0)
(51.0768 -0.00621488 0)
(51.0818 -0.00444029 0)
(51.0874 -0.0028335 0)
(51.0927 -0.00112364 0)
(51.099 0.000964472 0)
(51.1053 0.00344132 0)
(51.1125 0.00725557 0)
(51.1198 0.0123735 0)
(51.1273 0.0196682 0)
(51.1344 0.0292216 0)
(51.1405 0.041657 0)
(51.1443 0.0568001 0)
(51.1448 0.0744602 0)
(51.1405 0.093521 0)
(51.1305 0.1124 0)
(51.1145 0.128725 0)
(51.0933 0.140071 0)
(51.069 0.144398 0)
(51.0444 0.140862 0)
(51.0226 0.130015 0)
(51.0058 0.113727 0)
(50.9951 0.0944541 0)
(50.9904 0.0745943 0)
(50.9908 0.0560177 0)
(50.995 0.0400112 0)
(51.0014 0.0272329 0)
(51.0085 0.0176003 0)
(51.0149 0.0102522 0)
(51.0201 0.00397356 0)
(51.0243 -0.00216568 0)
(51.0288 -0.00839415 0)
(51.0343 -0.0140275 0)
(51.0403 -0.018133 0)
(51.0459 -0.0203481 0)
(51.0512 -0.0210917 0)
(51.0572 -0.0209685 0)
(51.0649 -0.0200729 0)
(51.071 -0.0183845 0)
(51.0659 -0.0158874 0)
(51.0587 -0.0134433 0)
(51.0289 -0.0115421 0)
(50.7435 -0.00758702 0)
(50.3413 -0.00496687 0)
(49.8317 -0.00228195 0)
(51.063 -0.0115641 0)
(51.0659 -0.00647251 0)
(51.072 -0.00682831 0)
(51.0768 -0.00598415 0)
(51.0819 -0.00496219 0)
(51.0874 -0.00327357 0)
(51.0928 -0.00154861 0)
(51.0991 0.000531019 0)
(51.1055 0.00296559 0)
(51.1128 0.00663943 0)
(51.1204 0.0115509 0)
(51.1283 0.0185968 0)
(51.136 0.0279026 0)
(51.1429 0.0401733 0)
(51.1479 0.0553649 0)
(51.1498 0.0734564 0)
(51.1472 0.0935373 0)
(51.1389 0.114214 0)
(51.1241 0.133195 0)
(51.1034 0.147907 0)
(51.0783 0.155891 0)
(51.0515 0.155682 0)
(51.0265 0.147204 0)
(51.0058 0.131932 0)
(50.9914 0.112294 0)
(50.9835 0.0909489 0)
(50.9815 0.070124 0)
(50.9843 0.0514085 0)
(50.9903 0.0358106 0)
(50.9981 0.0237924 0)
(51.006 0.0150267 0)
(51.0128 0.00844808 0)
(51.0179 0.0026825 0)
(51.0221 -0.00319542 0)
(51.0266 -0.00933813 0)
(51.0321 -0.0148839 0)
(51.038 -0.0188511 0)
(51.0437 -0.0209263 0)
(51.0492 -0.021592 0)
(51.0564 -0.021399 0)
(51.0663 -0.0203814 0)
(51.0689 -0.0183952 0)
(51.0594 -0.0158086 0)
(51.0534 -0.0135284 0)
(50.8431 -0.00991135 0)
(50.4415 -0.00561139 0)
(49.9973 -0.0028748 0)
(49.4965 -0.00120477 0)
(51.0629 -0.0128637 0)
(51.0659 -0.00736497 0)
(51.072 -0.0066992 0)
(51.0768 -0.00511768 0)
(51.0819 -0.0051942 0)
(51.0875 -0.00357599 0)
(51.0929 -0.00194886 0)
(51.0992 6.89611e-05 0)
(51.1057 0.00246594 0)
(51.1132 0.00603273 0)
(51.1209 0.0107653 0)
(51.1292 0.0175768 0)
(51.1375 0.0266246 0)
(51.1451 0.0386804 0)
(51.1512 0.0538189 0)
(51.1546 0.0721833 0)
(51.1537 0.093071 0)
(51.1472 0.115304 0)
(51.134 0.136737 0)
(51.1141 0.154752 0)
(51.0887 0.166567 0)
(51.0602 0.170137 0)
(51.0321 0.164694 0)
(51.0076 0.15116 0)
(50.989 0.131762 0)
(50.9774 0.109335 0)
(50.9726 0.0864873 0)
(50.9733 0.0651622 0)
(50.9783 0.0466051 0)
(50.9861 0.0316148 0)
(50.9952 0.0204554 0)
(51.0037 0.0126084 0)
(51.0107 0.00679131 0)
(51.0158 0.00152298 0)
(51.0199 -0.00413259 0)
(51.0244 -0.0102009 0)
(51.0299 -0.0156656 0)
(51.0358 -0.0195046 0)
(51.0414 -0.0214689 0)
(51.0472 -0.0220782 0)
(51.0572 -0.0218594 0)
(51.067 -0.0205886 0)
(51.0623 -0.0183645 0)
(51.059 -0.0158874 0)
(50.9303 -0.0125119 0)
(50.5572 -0.00765775 0)
(50.0992 -0.00372169 0)
(49.6447 -0.00108944 0)
(49.1723 -0.000355063 0)
(51.0628 -0.0135412 0)
(51.066 -0.00745105 0)
(51.072 -0.00644047 0)
(51.0769 -0.00408589 0)
(51.082 -0.00504795 0)
(51.0876 -0.00368732 0)
(51.093 -0.00227466 0)
(51.0993 -0.000391036 0)
(51.1059 0.00193923 0)
(51.1134 0.00541737 0)
(51.1214 0.00999803 0)
(51.13 0.0165967 0)
(51.1387 0.0253926 0)
(51.1472 0.0372041 0)
(51.1543 0.0522103 0)
(51.159 0.0707089 0)
(51.1598 0.0922016 0)
(51.1552 0.11574 0)
(51.1438 0.139381 0)
(51.1252 0.160554 0)
(51.1001 0.176262 0)
(51.0705 0.183958 0)
(51.0397 0.182167 0)
(51.0113 0.171132 0)
(50.9884 0.152689 0)
(50.9726 0.12969 0)
(50.9643 0.105102 0)
(50.9625 0.0813174 0)
(50.9658 0.0598796 0)
(50.9729 0.041733 0)
(50.9823 0.0274804 0)
(50.9924 0.0172605 0)
(51.0016 0.0103479 0)
(51.0086 0.00528998 0)
(51.0136 0.000476475 0)
(51.0176 -0.00497635 0)
(51.0221 -0.0109883 0)
(51.0277 -0.016376 0)
(51.0336 -0.0201017 0)
(51.0386 -0.0219703 0)
(51.0463 -0.0226066 0)
(51.0593 -0.0222669 0)
(51.063 -0.0207263 0)
(51.0573 -0.0183691 0)
(50.9996 -0.0155286 0)
(50.6672 -0.0101956 0)
(50.219 -0.00550083 0)
(49.7405 -0.00203296 0)
(49.2978 0.000343173 0)
(48.8649 0.00028198 0)
(51.0629 -0.0130112 0)
(51.066 -0.00652489 0)
(51.0721 -0.00614669 0)
(51.0769 -0.00327844 0)
(51.082 -0.00463395 0)
(51.0876 -0.00359649 0)
(51.093 -0.00249078 0)
(51.0994 -0.000809658 0)
(51.106 0.00140747 0)