/*--------------------------------*- C++ -*----------------------------------*\
  =========                 |
  \\      /  F ield         | OpenFOAM: The Open Source CFD Toolbox
   \\    /   O peration     | Website:  https://openfoam.org
    \\  /    A nd           | Version:  dev
     \\/     M anipulation  |
\*---------------------------------------------------------------------------*/
FoamFile
{
    version     2.0;
    format      ascii;
    class       volScalarField;
    location    "300";
    object      yPlus;
}
// * * * * * * * * * * * * * * * * * * * * * * * * * * * * * * * * * * * * * //

dimensions      [0 0 0 0 0 0 0];

internalField   uniform 0;

boundaryField
{
    inlet-l
    {
        type            calculated;
        value           uniform 0;
    }
    airfoil-l1
    {
        type            calculated;
        value           nonuniform List<scalar> 
71
(
191.501
214.762
249.85
283.661
310.236
327.639
337.954
343.132
344.665
343.687
340.889
337.027
331.669
325.252
318.176
310.706
303.016
295.208
287.342
279.495
271.731
264.069
256.541
249.175
241.997
235.033
228.303
221.823
215.637
209.775
204.275
199.177
194.527
190.363
186.746
183.707
181.272
179.429
178.138
177.351
176.95
176.857
177.032
177.331
177.745
178.116
178.488
178.739
178.866
178.823
178.627
178.188
177.483
176.58
175.436
174.021
172.419
170.575
168.563
166.353
164.029
161.563
159.002
156.372
153.678
150.971
148.252
145.569
142.904
140.398
137.768
)
;
    }
    empty-1
    {
        type            empty;
    }
    empty-2
    {
        type            empty;
    }
    wall-l1
    {
        type            calculated;
        value           nonuniform List<scalar> 
104
(
30.584
24.2133
16.6882
11.7961
14.9099
20.1146
15.5004
15.3222
16.4076
17.0643
17.5899
15.9432
15.416
15.4994
15.2666
15.6714
16.317
17.3346
18.2236
18.5815
18.4936
18.0001
17.3448
16.777
16.3916
16.2577
16.3291
16.5456
16.8768
17.2721
17.6828
18.0505
18.2909
18.329
18.1275
17.7172
17.2086
16.7485
16.4558
16.3791
16.5054
16.7733
17.0856
17.3404
17.4793
17.5084
17.4815
17.4532
17.4466
17.4373
17.3829
17.267
17.1335
17.082
17.214
17.5775
18.1107
18.6322
18.9222
18.8549
18.476
17.9822
17.6091
17.5072
17.6962
18.0846
18.512
18.8191
18.9214
18.8301
18.6246
18.4051
18.259
18.2406
18.3685
18.6259
18.9574
19.2821
19.5143
19.5969
19.5223
19.3291
19.0762
18.8141
18.565
18.3376
18.1514
18.0597
18.1452
18.4931
19.1365
19.9974
20.8616
21.4545
21.5479
21.0554
20.0792
18.9129
17.941
17.4322
17.4445
17.9298
18.7728
19.6709
)
;
    }
    airfoil-l2
    {
        type            calculated;
        value           nonuniform List<scalar> 
104
(
137.415
139.785
141.632
142.964
143.931
144.615
145.077
145.358
145.508
145.554
145.48
145.306
145.064
144.778
144.455
144.102
143.722
143.338
142.933
142.513
142.09
141.663
141.23
140.786
140.339
139.892
139.441
138.987
138.53
138.069
137.6
137.142
136.689
136.225
135.757
135.293
134.831
134.371
133.91
133.445
132.979
132.512
132.045
131.579
131.117
130.653
130.186
129.717
129.252
128.784
128.315
127.843
127.371
126.901
126.428
125.953
125.472
124.992
124.511
124.027
123.537
123.046
122.556
122.054
121.55
121.041
120.526
120.005
119.48
118.955
118.421
117.871
117.317
116.758
116.177
115.6
115.011
114.401
113.781
113.145
112.491
111.813
111.127
110.416
109.678
108.918
108.131
107.304
106.428
105.521
104.566
103.555
102.482
101.339
100.113
98.7876
97.3441
95.759
93.9968
91.9828
89.6718
86.7852
83.5156
77.2291
)
;
    }
    empty-3
    {
        type            empty;
    }
    empty-4
    {
        type            empty;
    }
    wall-l2
    {
        type            calculated;
        value           nonuniform List<scalar> 
51
(
20.2568
20.467
20.1702
19.5955
18.9499
18.4551
18.1506
18.1827
18.4104
18.7023
18.9638
19.0536
18.9738
18.7806
18.5561
18.4009
18.3493
18.4018
18.5344
18.6885
18.8124
18.8589
18.8135
18.6932
18.5318
18.3625
18.2061
18.064
17.9321
17.8059
17.6897
17.5929
17.5273
17.4985
17.5036
17.53
17.5601
17.5738
17.5498
17.4692
17.3384
17.1353
16.8465
16.4924
16.0934
15.6765
15.2684
14.8985
14.5819
14.3472
14.1168
)
;
    }
    outlet-l
    {
        type            calculated;
        value           uniform 0;
    }
    empty-5
    {
        type            empty;
    }
    empty-6
    {
        type            empty;
    }
    outlet-h
    {
        type            calculated;
        value           uniform 0;
    }
    wall-h2
    {
        type            calculated;
        value           nonuniform List<scalar> 
51
(
18.8034
18.8263
18.8163
18.7728
18.7016
18.6147
18.5261
18.4529
18.4028
18.3759
18.367
18.3681
18.3714
18.3723
18.3682
18.3574
18.339
18.3133
18.2842
18.2584
18.242
18.2359
18.2325
18.2185
18.1821
18.1218
18.0478
17.9761
17.9178
17.8707
17.8198
17.7466
17.6405
17.5069
17.3646
17.2816
17.1699
17.0602
16.9509
16.8397
16.7238
16.6011
16.4703
16.331
16.1832
16.0277
15.8634
15.6951
15.504
15.3317
14.9964
)
;
    }
    empty-7
    {
        type            empty;
    }
    empty-8
    {
        type            empty;
    }
    airfoil-h2
    {
        type            calculated;
        value           nonuniform List<scalar> 
104
(
136.067
138.401
140.233
141.566
142.54
143.247
143.735
144.052
144.237
144.327
144.319
144.218
144.049
143.825
143.558
143.263
142.94
142.61
142.255
141.894
141.523
141.141
140.752
140.358
139.958
139.543
139.133
138.717
138.293
137.872
137.444
137.01
136.573
136.145
135.711
135.27
134.822
134.374
133.931
133.481
133.035
132.581
132.126
131.67
131.216
130.762
130.303
129.842
129.379
128.909
128.448
127.972
127.501
127.034
126.56
126.085
125.61
125.128
124.637
124.152
123.657
123.17
122.669
122.168
121.663
121.154
120.639
120.114
119.588
119.057
118.512
117.969
117.413
116.85
116.276
115.689
115.098
114.486
113.864
113.225
112.566
111.897
111.21
110.495
109.76
109
108.204
107.373
106.503
105.593
104.635
103.621
102.543
101.397
100.165
98.8355
97.3841
95.7832
93.9967
91.9626
89.6366
86.7377
83.462
77.1375
)
;
    }
    wall-h1
    {
        type            calculated;
        value           nonuniform List<scalar> 
104
(
15.1434
15.2033
15.2969
15.4163
15.4386
15.3787
15.3596
15.3738
15.4112
15.4913
15.5792
15.6531
15.6947
15.687
15.6626
15.6571
15.6884
15.7657
15.8715
15.978
16.0595
16.0979
16.0944
16.07
16.0526
16.069
16.1314
16.2342
16.3572
16.4721
16.5581
16.6075
16.6288
16.637
16.6435
16.6528
16.6618
16.6669
16.6691
16.6741
16.6905
16.7197
16.7594
16.7988
16.8305
16.85
16.8637
16.882
16.9155
16.9718
17.0511
17.151
17.2637
17.3786
17.4837
17.5688
17.6259
17.6567
17.6703
17.6823
17.705
17.746
17.8026
17.8664
17.9268
17.9775
18.0201
18.0592
18.0986
18.141
18.1865
18.2346
18.2869
18.3466
18.4136
18.4827
18.5417
18.5775
18.5811
18.5517
18.4989
18.4413
18.3984
18.383
18.4018
18.4498
18.5168
18.5904
18.6599
18.7214
18.773
18.8164
18.8487
18.8668
18.8643
18.8405
18.7986
18.7496
18.7063
18.6791
18.6751
18.6938
18.7293
18.7771
)
;
    }
    empty-9
    {
        type            empty;
    }
    empty-10
    {
        type            empty;
    }
    inlet-h
    {
        type            calculated;
        value           uniform 0;
    }
    airfoil-h1
    {
        type            calculated;
        value           nonuniform List<scalar> 
71
(
189.646
210.074
244.587
279.141
307.487
326.873
338.937
345.506
348.08
347.827
345.521
341.882
336.807
330.475
323.333
315.692
307.747
299.629
291.398
283.16
274.972
266.861
258.876
251.047
243.381
235.931
228.713
221.766
215.109
208.778
202.822
197.291
192.229
187.681
183.718
180.365
177.658
175.607
174.164
173.263
172.814
172.707
172.877
173.229
173.731
174.207
174.661
175.023
175.277
175.395
175.306
175.046
174.525
173.774
172.768
171.495
170.015
168.311
166.385
164.294
162.041
159.66
157.175
154.614
151.994
149.328
146.683
144.045
141.446
139.006
136.43
)
;
    }
    empty-11
    {
        type            empty;
    }
    empty-12
    {
        type            empty;
    }
}


// ************************************************************************* //
