/*--------------------------------*- C++ -*----------------------------------*\
  =========                 |
  \\      /  F ield         | OpenFOAM: The Open Source CFD Toolbox
   \\    /   O peration     | Website:  https://openfoam.org
    \\  /    A nd           | Version:  dev
     \\/     M anipulation  |
\*---------------------------------------------------------------------------*/
FoamFile
{
    version     2.0;
    format      ascii;
    class       volScalarField;
    location    "25";
    object      nut;
}
// * * * * * * * * * * * * * * * * * * * * * * * * * * * * * * * * * * * * * //

dimensions      [0 2 -1 0 0 0 0];

internalField   nonuniform List<scalar> 
29380
(
9.1121e-06
9.11132e-06
9.10462e-06
9.11075e-06
9.1043e-06
9.10837e-06
9.11022e-06
9.10415e-06
9.10769e-06
9.10583e-06
9.10974e-06
9.10399e-06
9.10736e-06
9.1053e-06
9.10672e-06
9.10929e-06
9.10382e-06
9.10701e-06
9.10506e-06
9.1061e-06
9.10642e-06
9.10884e-06
9.10365e-06
9.10669e-06
9.10479e-06
9.10581e-06
9.10581e-06
9.10694e-06
9.10841e-06
9.1035e-06
9.10638e-06
9.10454e-06
9.10549e-06
9.10551e-06
9.10628e-06
9.10746e-06
9.108e-06
9.10336e-06
9.10607e-06
9.10431e-06
9.10519e-06
9.10519e-06
9.10599e-06
9.10672e-06
9.10835e-06
9.10763e-06
9.10324e-06
9.10578e-06
9.1041e-06
9.10491e-06
9.10489e-06
9.10564e-06
9.1064e-06
9.10751e-06
9.10942e-06
9.10729e-06
9.10312e-06
9.10551e-06
9.10391e-06
9.10465e-06
9.10461e-06
9.10529e-06
9.10602e-06
9.10713e-06
9.10852e-06
9.1106e-06
9.10696e-06
9.10301e-06
9.10526e-06
9.10374e-06
9.10441e-06
9.10435e-06
9.10497e-06
9.10567e-06
9.10669e-06
9.10806e-06
9.10971e-06
9.11162e-06
9.10664e-06
9.1029e-06
9.10503e-06
9.10359e-06
9.10419e-06
9.10412e-06
9.10468e-06
9.10532e-06
9.10627e-06
9.10754e-06
9.10919e-06
9.1108e-06
9.11265e-06
9.10632e-06
9.10279e-06
9.10481e-06
9.10345e-06
9.10398e-06
9.1039e-06
9.10441e-06
9.10499e-06
9.10589e-06
9.10705e-06
9.10858e-06
9.11035e-06
9.11175e-06
9.11414e-06
9.106e-06
9.1027e-06
9.10461e-06
9.10331e-06
9.1038e-06
9.1037e-06
9.10416e-06
9.10469e-06
9.10553e-06
9.10659e-06
9.108e-06
9.10967e-06
9.11152e-06
9.11231e-06
9.11932e-06
9.10569e-06
9.10261e-06
9.10441e-06
9.10318e-06
9.10363e-06
9.10351e-06
9.10393e-06
9.10441e-06
9.10519e-06
9.10616e-06
9.10746e-06
9.10903e-06
9.1108e-06
9.11233e-06
9.11539e-06
9.12943e-06
9.10541e-06
9.10253e-06
9.10423e-06
9.10305e-06
9.10347e-06
9.10334e-06
9.10372e-06
9.10415e-06
9.10487e-06
9.10577e-06
9.10695e-06
9.10842e-06
9.11011e-06
9.11177e-06
9.1145e-06
9.12355e-06
9.14402e-06
9.10515e-06
9.10245e-06
9.10405e-06
9.10294e-06
9.10333e-06
9.10319e-06
9.10353e-06
9.10392e-06
9.10457e-06
9.10541e-06
9.10647e-06
9.10784e-06
9.1094e-06
9.11121e-06
9.11362e-06
9.12156e-06
9.13582e-06
9.16439e-06
9.10491e-06
9.10238e-06
9.10388e-06
9.10283e-06
9.1032e-06
9.10305e-06
9.10335e-06
9.1037e-06
9.10429e-06
9.10508e-06
9.10603e-06
9.10729e-06
9.10874e-06
9.11053e-06
9.1132e-06
9.1194e-06
9.1328e-06
9.15321e-06
9.19233e-06
9.10469e-06
9.10231e-06
9.10373e-06
9.10273e-06
9.10307e-06
9.10293e-06
9.1032e-06
9.10351e-06
9.10404e-06
9.10476e-06
9.10563e-06
9.10678e-06
9.10812e-06
9.10986e-06
9.11279e-06
9.11798e-06
9.12939e-06
9.14887e-06
9.17735e-06
9.22977e-06
9.10449e-06
9.10225e-06
9.10358e-06
9.10264e-06
9.10296e-06
9.10282e-06
9.10305e-06
9.10333e-06
9.10382e-06
9.10446e-06
9.10527e-06
9.1063e-06
9.10755e-06
9.10923e-06
9.11229e-06
9.11695e-06
9.12681e-06
9.14395e-06
9.17126e-06
9.21007e-06
9.27882e-06
9.10429e-06
9.10219e-06
9.10344e-06
9.10256e-06
9.10285e-06
9.10272e-06
9.10292e-06
9.10318e-06
9.10361e-06
9.10419e-06
9.10494e-06
9.10585e-06
9.10704e-06
9.10866e-06
9.1117e-06
9.11621e-06
9.12466e-06
9.14002e-06
9.16445e-06
9.20167e-06
9.25338e-06
9.34157e-06
9.10411e-06
9.10215e-06
9.10332e-06
9.10249e-06
9.10276e-06
9.10262e-06
9.1028e-06
9.10303e-06
9.10342e-06
9.10395e-06
9.10464e-06
9.10545e-06
9.10659e-06
9.10814e-06
9.11109e-06
9.11558e-06
9.12296e-06
9.13665e-06
9.15885e-06
9.19235e-06
9.24205e-06
9.30933e-06
9.41998e-06
9.10393e-06
9.1021e-06
9.1032e-06
9.10242e-06
9.10267e-06
9.10253e-06
9.1027e-06
9.1029e-06
9.10326e-06
9.10374e-06
9.10436e-06
9.10511e-06
9.10619e-06
9.10769e-06
9.11052e-06
9.11492e-06
9.12163e-06
9.13387e-06
9.1539e-06
9.18457e-06
9.22955e-06
9.29434e-06
9.37983e-06
9.51592e-06
9.10376e-06
9.10207e-06
9.10308e-06
9.10235e-06
9.10258e-06
9.10245e-06
9.1026e-06
9.10279e-06
9.10311e-06
9.10354e-06
9.1041e-06
9.10481e-06
9.10583e-06
9.10729e-06
9.11e-06
9.11422e-06
9.1206e-06
9.13152e-06
9.14962e-06
9.17764e-06
9.21893e-06
9.27793e-06
9.36039e-06
9.46673e-06
9.63098e-06
9.1036e-06
9.10203e-06
9.10298e-06
9.1023e-06
9.1025e-06
9.10238e-06
9.10251e-06
9.10268e-06
9.10298e-06
9.10337e-06
9.10388e-06
9.10456e-06
9.10549e-06
9.10694e-06
9.10953e-06
9.11351e-06
9.11973e-06
9.12948e-06
9.14594e-06
9.17158e-06
9.20939e-06
9.26373e-06
9.33923e-06
9.44199e-06
9.57163e-06
9.76648e-06
9.10342e-06
9.10198e-06
9.10289e-06
9.10224e-06
9.10244e-06
9.10231e-06
9.10243e-06
9.10258e-06
9.10286e-06
9.10322e-06
9.10368e-06
9.10433e-06
9.10519e-06
9.10662e-06
9.10909e-06
9.11283e-06
9.11891e-06
9.12768e-06
9.1428e-06
9.16624e-06
9.20095e-06
9.25088e-06
9.32064e-06
9.41521e-06
9.54067e-06
9.69591e-06
9.92326e-06
9.10322e-06
9.10192e-06
9.1028e-06
9.1022e-06
9.10238e-06
9.10225e-06
9.10235e-06
9.10249e-06
9.10274e-06
9.10308e-06
9.10351e-06
9.10413e-06
9.10493e-06
9.10632e-06
9.10867e-06
9.11221e-06
9.11805e-06
9.12611e-06
9.1401e-06
9.16151e-06
9.19345e-06
9.23939e-06
9.30367e-06
9.39134e-06
9.50733e-06
9.65781e-06
9.8405e-06
1.01017e-05
9.10298e-06
9.10184e-06
9.10269e-06
9.10215e-06
9.10233e-06
9.1022e-06
9.10228e-06
9.1024e-06
9.10263e-06
9.10295e-06
9.10336e-06
9.10395e-06
9.10472e-06
9.10603e-06
9.10827e-06
9.11163e-06
9.11715e-06
9.12479e-06
9.13772e-06
9.15732e-06
9.18677e-06
9.22908e-06
9.28835e-06
9.36937e-06
9.47721e-06
9.61695e-06
9.79431e-06
1.00058e-05
1.03017e-05
9.10272e-06
9.10177e-06
9.10257e-06
9.10209e-06
9.10227e-06
9.10216e-06
9.10223e-06
9.10231e-06
9.10252e-06
9.10282e-06
9.10321e-06
9.10378e-06
9.10453e-06
9.10578e-06
9.1079e-06
9.1111e-06
9.11626e-06
9.12367e-06
9.13551e-06
9.1536e-06
9.18081e-06
9.21984e-06
9.27449e-06
9.34935e-06
9.44929e-06
9.57959e-06
9.74498e-06
9.95057e-06
1.0192e-05
1.0523e-05
9.10249e-06
9.10171e-06
9.10243e-06
9.10201e-06
9.10221e-06
9.10211e-06
9.10218e-06
9.10225e-06
9.10242e-06
9.10269e-06
9.10307e-06
9.10362e-06
9.10436e-06
9.10555e-06
9.10755e-06
9.1106e-06
9.11543e-06
9.12264e-06
9.1334e-06
9.1503e-06
9.17545e-06
9.21152e-06
9.26197e-06
9.3311e-06
9.42361e-06
9.54469e-06
9.69935e-06
9.89181e-06
1.01268e-05
1.03989e-05
1.07648e-05
9.10233e-06
9.10169e-06
9.1023e-06
9.10191e-06
9.10212e-06
9.10206e-06
9.10214e-06
9.1022e-06
9.10234e-06
9.10256e-06
9.10291e-06
9.10345e-06
9.10419e-06
9.10535e-06
9.10723e-06
9.11013e-06
9.11468e-06
9.12159e-06
9.13138e-06
9.14732e-06
9.17061e-06
9.20402e-06
9.25063e-06
9.31448e-06
9.40003e-06
9.51235e-06
9.65644e-06
9.83688e-06
1.00577e-05
1.03227e-05
1.06257e-05
1.10261e-05
9.10222e-06
9.10169e-06
9.10221e-06
9.10183e-06
9.10203e-06
9.10199e-06
9.10209e-06
9.10217e-06
9.10228e-06
9.10246e-06
9.10276e-06
9.10326e-06
9.104e-06
9.10515e-06
9.10692e-06
9.10969e-06
9.114e-06
9.12051e-06
9.12955e-06
9.14456e-06
9.16616e-06
9.1972e-06
9.24035e-06
9.29936e-06
9.37842e-06
9.48243e-06
9.61637e-06
9.78488e-06
9.99242e-06
1.02424e-05
1.05378e-05
1.08718e-05
1.13053e-05
9.10215e-06
9.1017e-06
9.10217e-06
9.10179e-06
9.10196e-06
9.10191e-06
9.10202e-06
9.10212e-06
9.10224e-06
9.10238e-06
9.10264e-06
9.10307e-06
9.10378e-06
9.10493e-06
9.10661e-06
9.10926e-06
9.11337e-06
9.11946e-06
9.12796e-06
9.14197e-06
9.16204e-06
9.19094e-06
9.23098e-06
9.28558e-06
9.35863e-06
9.45483e-06
9.57904e-06
9.73596e-06
9.93026e-06
1.01658e-05
1.04454e-05
1.07713e-05
1.11358e-05
1.1601e-05
9.10206e-06
9.10168e-06
9.10215e-06
9.10177e-06
9.1019e-06
9.10184e-06
9.10194e-06
9.10205e-06
9.10219e-06
9.10234e-06
9.10255e-06
9.10291e-06
9.10355e-06
9.10465e-06
9.10626e-06
9.10881e-06
9.11275e-06
9.11849e-06
9.12661e-06
9.13953e-06
9.15822e-06
9.18513e-06
9.22236e-06
9.27297e-06
9.34051e-06
9.42942e-06
9.54439e-06
9.69012e-06
9.87141e-06
1.00924e-05
1.03565e-05
1.06661e-05
1.1022e-05
1.14163e-05
1.19113e-05
9.10194e-06
9.10166e-06
9.10212e-06
9.10177e-06
9.10188e-06
9.10179e-06
9.10187e-06
9.10196e-06
9.10212e-06
9.10229e-06
9.1025e-06
9.10279e-06
9.10336e-06
9.10434e-06
9.10588e-06
9.10831e-06
9.11211e-06
9.1176e-06
9.12542e-06
9.13727e-06
9.15472e-06
9.17974e-06
9.21436e-06
9.26134e-06
9.32389e-06
9.40605e-06
9.51233e-06
9.64732e-06
9.81592e-06
1.00225e-05
1.02709e-05
1.05639e-05
1.09033e-05
1.12886e-05
1.17117e-05
1.22342e-05
9.10182e-06
9.10162e-06
9.10205e-06
9.10176e-06
9.10187e-06
9.10177e-06
9.10182e-06
9.10188e-06
9.10203e-06
9.10221e-06
9.10246e-06
9.10273e-06
9.10323e-06
9.10406e-06
9.10546e-06
9.10774e-06
9.1114e-06
9.1167e-06
9.12424e-06
9.13518e-06
9.15156e-06
9.1748e-06
9.20694e-06
9.25056e-06
9.30853e-06
9.38452e-06
9.48271e-06
9.60753e-06
9.76385e-06
9.95624e-06
1.01888e-05
1.0465e-05
1.0787e-05
1.11558e-05
1.15696e-05
1.20203e-05
1.25675e-05
9.10172e-06
9.10158e-06
9.10195e-06
9.10173e-06
9.10185e-06
9.10176e-06
9.10179e-06
9.10182e-06
9.10193e-06
9.10211e-06
9.10237e-06
9.10269e-06
9.10317e-06
9.10387e-06
9.10507e-06
9.10712e-06
9.11058e-06
9.11571e-06
9.12297e-06
9.13323e-06
9.14868e-06
9.17035e-06
9.20012e-06
9.24055e-06
9.29428e-06
9.36461e-06
9.45533e-06
9.5706e-06
9.7152e-06
9.89375e-06
1.01107e-05
1.03698e-05
1.0674e-05
1.10247e-05
1.14222e-05
1.18634e-05
1.23401e-05
1.29087e-05
9.10167e-06
9.10155e-06
9.10184e-06
9.10168e-06
9.10181e-06
9.10174e-06
9.10178e-06
9.10179e-06
9.10187e-06
9.102e-06
9.10225e-06
9.1026e-06
9.10313e-06
9.10379e-06
9.1048e-06
9.10657e-06
9.10967e-06
9.11456e-06
9.12154e-06
9.1313e-06
9.14593e-06
9.1663e-06
9.19396e-06
9.23136e-06
9.28106e-06
9.34611e-06
9.42995e-06
9.53636e-06
9.66989e-06
9.83512e-06
1.00366e-05
1.02786e-05
1.05645e-05
1.08965e-05
1.12755e-05
1.17009e-05
1.21678e-05
1.26685e-05
1.32551e-05
9.10164e-06
9.10154e-06
9.10176e-06
9.10163e-06
9.10174e-06
9.1017e-06
9.10175e-06
9.10177e-06
9.10183e-06
9.10192e-06
9.10211e-06
9.10245e-06
9.10303e-06
9.10375e-06
9.10467e-06
9.10618e-06
9.10882e-06
9.11327e-06
9.1199e-06
9.12925e-06
9.14309e-06
9.16246e-06
9.18838e-06
9.22303e-06
9.2689e-06
9.32895e-06
9.40635e-06
9.50455e-06
9.62774e-06
9.7803e-06
9.96688e-06
1.01919e-05
1.04593e-05
1.07719e-05
1.11314e-05
1.1538e-05
1.19902e-05
1.24808e-05
1.30032e-05
1.36042e-05
9.1016e-06
9.10154e-06
9.10173e-06
9.1016e-06
9.10168e-06
9.10165e-06
9.10171e-06
9.10175e-06
9.10181e-06
9.10188e-06
9.10201e-06
9.10229e-06
9.10284e-06
9.10362e-06
9.1046e-06
9.10599e-06
9.10819e-06
9.11204e-06
9.1181e-06
9.12695e-06
9.13994e-06
9.15849e-06
9.18313e-06
9.21547e-06
9.25787e-06
9.31317e-06
9.38446e-06
9.47496e-06
9.58849e-06
9.72917e-06
9.90146e-06
1.011e-05
1.03589e-05
1.06516e-05
1.09907e-05
1.13773e-05
1.18105e-05
1.22877e-05
1.27999e-05
1.33416e-05
1.39528e-05
9.10155e-06
9.10154e-06
9.10172e-06
9.1016e-06
9.10165e-06
9.1016e-06
9.10165e-06
9.10171e-06
9.10179e-06
9.10186e-06
9.10195e-06
9.10217e-06
9.10263e-06
9.10338e-06
9.10444e-06
9.10588e-06
9.10786e-06
9.11109e-06
9.11635e-06
9.12441e-06
9.13637e-06
9.15407e-06
9.17778e-06
9.20842e-06
9.24787e-06
9.29884e-06
9.36434e-06
9.4475e-06
9.55195e-06
9.68146e-06
9.84026e-06
1.00328e-05
1.02636e-05
1.05363e-05
1.08543e-05
1.12196e-05
1.16325e-05
1.20908e-05
1.25912e-05
1.31226e-05
1.36808e-05
1.42973e-05
9.10151e-06
9.10152e-06
9.10171e-06
9.10161e-06
9.10164e-06
9.10158e-06
9.10161e-06
9.10166e-06
9.10175e-06
9.10183e-06
9.10193e-06
9.10211e-06
9.10246e-06
9.10309e-06
9.10414e-06
9.10567e-06
9.10771e-06
9.11056e-06
9.11497e-06
9.12192e-06
9.13252e-06
9.14901e-06
9.17184e-06
9.20134e-06
9.23858e-06
9.28585e-06
9.34604e-06
9.42226e-06
9.51805e-06
9.63699e-06
9.78305e-06
9.9605e-06
1.01737e-05
1.04267e-05
1.07233e-05
1.10663e-05
1.1457e-05
1.18949e-05
1.23767e-05
1.28985e-05
1.34461e-05
1.40169e-05
1.46333e-05
9.10148e-06
9.1015e-06
9.10167e-06
9.1016e-06
9.10164e-06
9.10158e-06
9.10158e-06
9.10162e-06
9.10169e-06
9.10178e-06
9.1019e-06
9.10209e-06
9.10238e-06
9.10286e-06
9.10378e-06
9.10529e-06
9.10747e-06
9.11028e-06
9.11413e-06
9.11992e-06
9.12886e-06
9.14346e-06
9.165e-06
9.19359e-06
9.22938e-06
9.27381e-06
9.32944e-06
9.3993e-06
9.48687e-06
9.59572e-06
9.72965e-06
9.89275e-06
1.00891e-05
1.03229e-05
1.05983e-05
1.09185e-05
1.12858e-05
1.1701e-05
1.21624e-05
1.26661e-05
1.32065e-05
1.37667e-05
1.43457e-05
1.49575e-05
9.10146e-06
9.10148e-06
9.10162e-06
9.10158e-06
9.10164e-06
9.10158e-06
9.10158e-06
9.10159e-06
9.10163e-06
9.10171e-06
9.10185e-06
9.10206e-06
9.10236e-06
9.10275e-06
9.10348e-06
9.10482e-06
9.10699e-06
9.10993e-06
9.11366e-06
9.11869e-06
9.12601e-06
9.13806e-06
9.15739e-06
9.18463e-06
9.21942e-06
9.262e-06
9.31412e-06
9.37848e-06
9.45852e-06
9.55778e-06
9.68008e-06
9.82944e-06
1.00098e-05
1.02252e-05
1.04798e-05
1.07772e-05
1.11204e-05
1.15112e-05
1.19495e-05
1.2433e-05
1.29562e-05
1.35117e-05
1.408e-05
1.4664e-05
1.52659e-05
9.10145e-06
9.10147e-06
9.10157e-06
9.10155e-06
9.10161e-06
9.10158e-06
9.10158e-06
9.10158e-06
9.1016e-06
9.10165e-06
9.10177e-06
9.102e-06
9.10234e-06
9.10272e-06
9.10332e-06
9.1044e-06
9.10636e-06
9.10929e-06
9.11316e-06
9.11802e-06
9.12428e-06
9.13373e-06
9.14985e-06
9.1745e-06
9.20791e-06
9.24939e-06
9.29922e-06
9.3593e-06
9.4328e-06
9.52328e-06
9.63453e-06
9.77065e-06
9.93566e-06
1.01334e-05
1.03679e-05
1.06429e-05
1.09619e-05
1.13273e-05
1.17403e-05
1.22004e-05
1.27038e-05
1.32432e-05
1.38098e-05
1.43831e-05
1.49677e-05
1.55528e-05
9.10143e-06
9.10147e-06
9.10154e-06
9.10152e-06
9.10157e-06
9.10156e-06
9.10158e-06
9.10158e-06
9.10158e-06
9.10161e-06
9.1017e-06
9.1019e-06
9.10226e-06
9.10269e-06
9.10325e-06
9.10414e-06
9.10576e-06
9.10844e-06
9.11232e-06
9.11735e-06
9.1234e-06
9.13108e-06
9.14365e-06
9.16422e-06
9.19475e-06
9.23493e-06
9.28349e-06
9.3408e-06
9.40917e-06
9.49201e-06
9.59313e-06
9.71662e-06
9.86674e-06
1.00475e-05
1.02627e-05
1.0516e-05
1.0811e-05
1.11508e-05
1.15372e-05
1.19713e-05
1.24512e-05
1.29713e-05
1.3523e-05
1.40978e-05
1.46716e-05
1.52509e-05
1.58122e-05
9.10142e-06
9.10147e-06
9.10153e-06
9.1015e-06
9.10154e-06
9.10153e-06
9.10156e-06
9.10157e-06
9.10158e-06
9.10159e-06
9.10165e-06
9.1018e-06
9.10214e-06
9.1026e-06
9.10317e-06
9.10398e-06
9.10533e-06
9.10762e-06
9.1112e-06
9.11625e-06
9.12258e-06
9.12984e-06
9.13976e-06
9.15556e-06
9.18118e-06
9.21835e-06
9.2656e-06
9.3215e-06
9.38653e-06
9.46332e-06
9.55564e-06
9.66754e-06
9.8034e-06
9.96754e-06
1.0164e-05
1.03965e-05
1.06683e-05
1.09825e-05
1.1342e-05
1.17483e-05
1.22016e-05
1.26982e-05
1.32315e-05
1.37928e-05
1.43717e-05
1.49399e-05
1.55078e-05
1.60385e-05
9.10141e-06
9.10147e-06
9.10152e-06
9.10149e-06
9.10152e-06
9.10151e-06
9.10154e-06
9.10155e-06
9.10157e-06
9.10158e-06
9.10162e-06
9.10173e-06
9.10202e-06
9.10245e-06
9.10304e-06
9.10384e-06
9.10504e-06
9.10698e-06
9.11009e-06
9.11478e-06
9.12121e-06
9.12897e-06
9.13794e-06
9.14997e-06
9.16951e-06
9.20096e-06
9.24501e-06
9.29967e-06
9.36313e-06
9.43595e-06
9.52129e-06
9.62316e-06
9.74588e-06
9.89408e-06
1.00723e-05
1.02843e-05
1.05336e-05
1.08231e-05
1.11556e-05
1.15337e-05
1.19582e-05
1.24277e-05
1.29378e-05
1.34816e-05
1.40484e-05
1.46253e-05
1.51822e-05
1.57331e-05
1.62249e-05
9.10141e-06
9.10147e-06
9.10152e-06
9.10149e-06
9.10151e-06
9.1015e-06
9.10151e-06
9.10152e-06
9.10156e-06
9.10157e-06
9.1016e-06
9.10169e-06
9.10193e-06
9.1023e-06
9.10287e-06
9.10366e-06
9.10478e-06
9.1065e-06
9.10919e-06
9.1133e-06
9.11933e-06
9.12749e-06
9.13688e-06
9.14738e-06
9.16179e-06
9.18563e-06
9.22314e-06
9.27447e-06
9.33684e-06
9.40789e-06
9.48865e-06
9.58256e-06
9.69393e-06
9.8274e-06
9.98797e-06
1.018e-05
1.04073e-05
1.06726e-05
1.09788e-05
1.13286e-05
1.17237e-05
1.21635e-05
1.26461e-05
1.31671e-05
1.37174e-05
1.42838e-05
1.48531e-05
1.53933e-05
1.59203e-05
1.6366e-05
9.10142e-06
9.10147e-06
9.10151e-06
9.10149e-06
9.10151e-06
9.1015e-06
9.1015e-06
9.10149e-06
9.10153e-06
9.10156e-06
9.10159e-06
9.10166e-06
9.10186e-06
9.10217e-06
9.1027e-06
9.10346e-06
9.10451e-06
9.10607e-06
9.10844e-06
9.11204e-06
9.11736e-06
9.1252e-06
9.13518e-06
9.14612e-06
9.15815e-06
9.17512e-06
9.20346e-06
9.24742e-06
9.30643e-06
9.3766e-06
9.45539e-06
9.54411e-06
9.64653e-06
9.76725e-06
9.91145e-06
1.00842e-05
1.02897e-05
1.05314e-05
1.08119e-05
1.1134e-05
1.14993e-05
1.19086e-05
1.23608e-05
1.28541e-05
1.33821e-05
1.3933e-05
1.44936e-05
1.505e-05
1.55669e-05
1.60651e-05
1.64633e-05
9.10142e-06
9.10147e-06
9.1015e-06
9.10149e-06
9.1015e-06
9.1015e-06
9.10149e-06
9.10148e-06
9.10151e-06
9.10154e-06
9.10157e-06
9.10164e-06
9.1018e-06
9.10207e-06
9.10254e-06
9.10326e-06
9.10425e-06
9.10565e-06
9.10774e-06
9.11093e-06
9.11561e-06
9.12259e-06
9.13237e-06
9.1442e-06
9.15655e-06
9.16996e-06
9.1896e-06
9.22269e-06
9.27351e-06
9.34047e-06
9.41854e-06
9.50514e-06
9.60178e-06
9.7125e-06
9.84249e-06
9.99719e-06
1.01817e-05
1.04e-05
1.06553e-05
1.09501e-05
1.12863e-05
1.16646e-05
1.20853e-05
1.25476e-05
1.30478e-05
1.35768e-05
1.41231e-05
1.46724e-05
1.52095e-05
1.56988e-05
1.61704e-05
1.6524e-05
9.10143e-06
9.10147e-06
9.1015e-06
9.10148e-06
9.10149e-06
9.10149e-06
9.10149e-06
9.10148e-06
9.10149e-06
9.10152e-06
9.10155e-06
9.10161e-06
9.10174e-06
9.10196e-06
9.10237e-06
9.10306e-06
9.10402e-06
9.1053e-06
9.10711e-06
9.10987e-06
9.11402e-06
9.12008e-06
9.12894e-06
9.14083e-06
9.15437e-06
9.16783e-06
9.18259e-06
9.20493e-06
9.24303e-06
9.30115e-06
9.3761e-06
9.46218e-06
9.55659e-06
9.66098e-06
9.77985e-06
9.91887e-06
1.00837e-05
1.02793e-05
1.05096e-05
1.07776e-05
1.1085e-05
1.14329e-05
1.18215e-05
1.22514e-05
1.272e-05
1.32213e-05
1.37462e-05
1.42824e-05
1.48141e-05
1.53277e-05
1.57924e-05
1.62461e-05
1.65564e-05
9.10143e-06
9.10147e-06
9.1015e-06
9.10148e-06
9.10149e-06
9.10148e-06
9.10149e-06
9.10149e-06
9.10149e-06
9.10151e-06
9.10155e-06
9.1016e-06
9.1017e-06
9.10186e-06
9.10218e-06
9.10281e-06
9.10378e-06
9.10504e-06
9.10664e-06
9.10894e-06
9.11248e-06
9.11775e-06
9.12547e-06
9.13647e-06
9.15039e-06
9.16541e-06
9.17986e-06
9.19578e-06
9.22082e-06
9.26437e-06
9.32975e-06
9.41282e-06
9.507e-06
9.60916e-06
9.7211e-06
9.84785e-06
9.99556e-06
1.01699e-05
1.03759e-05
1.06172e-05
1.08963e-05
1.1214e-05
1.1571e-05
1.19678e-05
1.24032e-05
1.28725e-05
1.33697e-05
1.38851e-05
1.44047e-05
1.49146e-05
1.54085e-05
1.58587e-05
1.63045e-05
1.65743e-05
9.10143e-06
9.10147e-06
9.10151e-06
9.10148e-06
9.10148e-06
9.10148e-06
9.10149e-06
9.10149e-06
9.10149e-06
9.10151e-06
9.10154e-06
9.10159e-06
9.10168e-06
9.1018e-06
9.10201e-06
9.10251e-06
9.10344e-06
9.10477e-06
9.10634e-06
9.1083e-06
9.11116e-06
9.11556e-06
9.12216e-06
9.13186e-06
9.14502e-06
9.1609e-06
9.1773e-06
9.19242e-06
9.20925e-06
9.23713e-06
9.28604e-06
9.35884e-06
9.45015e-06
9.55248e-06
9.66225e-06
9.78144e-06
9.91575e-06
1.00716e-05
1.02547e-05
1.04701e-05
1.0721e-05
1.10089e-05
1.13345e-05
1.16986e-05
1.20999e-05
1.25353e-05
1.30003e-05
1.3488e-05
1.39873e-05
1.4486e-05
1.49784e-05
1.54636e-05
1.59108e-05
1.63649e-05
1.66011e-05
9.10144e-06
9.10147e-06
9.10151e-06
9.10149e-06
9.10148e-06
9.10148e-06
9.10148e-06
9.10149e-06
9.10149e-06
9.1015e-06
9.10152e-06
9.10159e-06
9.10168e-06
9.10178e-06
9.10191e-06
9.10223e-06
9.10298e-06
9.10432e-06
9.10604e-06
9.10798e-06
9.11033e-06
9.11378e-06
9.11914e-06
9.12737e-06
9.13914e-06
9.15454e-06
9.17233e-06
9.18978e-06
9.20521e-06
9.2227e-06
9.25331e-06
9.30767e-06
9.38798e-06
9.48762e-06
9.59807e-06
9.71518e-06
9.84133e-06
9.98269e-06
1.01459e-05
1.0337e-05
1.05603e-05
1.08186e-05
1.11131e-05
1.14445e-05
1.18121e-05
1.22128e-05
1.26433e-05
1.30985e-05
1.35702e-05
1.40487e-05
1.45311e-05
1.50169e-05
1.5507e-05
1.59703e-05
1.64595e-05
1.66802e-05
9.10144e-06
9.10148e-06
9.10151e-06
9.10149e-06
9.10149e-06
9.10148e-06
9.10148e-06
9.10148e-06
9.10149e-06
9.10149e-06
9.1015e-06
9.10157e-06
9.10168e-06
9.10179e-06
9.10188e-06
9.10206e-06
9.10253e-06
9.10365e-06
9.10547e-06
9.10767e-06
9.10998e-06
9.11273e-06
9.11678e-06
9.12324e-06
9.13324e-06
9.14731e-06
9.16493e-06
9.1844e-06
9.20258e-06
9.2178e-06
9.23576e-06
9.26905e-06
9.32889e-06
9.41668e-06
9.52474e-06
9.64314e-06
9.76733e-06
9.9e-06
1.00478e-05
1.02176e-05
1.04152e-05
1.06445e-05
1.09079e-05
1.1207e-05
1.15409e-05
1.19071e-05
1.23022e-05
1.27226e-05
1.31613e-05
1.36121e-05
1.40742e-05
1.45509e-05
1.50444e-05
1.5562e-05
1.60718e-05
1.66455e-05
1.70058e-05
9.10144e-06
9.10148e-06
9.10151e-06
9.10149e-06
9.10149e-06
9.10148e-06
9.10148e-06
9.10148e-06
9.10149e-06
9.10149e-06
9.10149e-06
9.10153e-06
9.10164e-06
9.10178e-06
9.10191e-06
9.10203e-06
9.10226e-06
9.10295e-06
9.10454e-06
9.10696e-06
9.10968e-06
9.11237e-06
9.11548e-06
9.12008e-06
9.12778e-06
9.13987e-06
9.15618e-06
9.17592e-06
9.19684e-06
9.21521e-06
9.22996e-06
9.24817e-06
9.28408e-06
9.34918e-06
9.44454e-06
9.56095e-06
9.68711e-06
9.81801e-06
9.95665e-06
1.01101e-05
1.02853e-05
1.04874e-05
1.07205e-05
1.09872e-05
1.12876e-05
1.16193e-05
1.19794e-05
1.23639e-05
1.27673e-05
1.31847e-05
1.36183e-05
1.40741e-05
1.45594e-05
1.50845e-05
1.5666e-05
1.62769e-05
1.71636e-05
1.8619e-05
9.10145e-06
9.10148e-06
9.10151e-06
9.10149e-06
9.10149e-06
9.10148e-06
9.10148e-06
9.10148e-06
9.10148e-06
9.10149e-06
9.10149e-06
9.1015e-06
9.10157e-06
9.10173e-06
9.10191e-06
9.10207e-06
9.10222e-06
9.10253e-06
9.10354e-06
9.10569e-06
9.1088e-06
9.11208e-06
9.11515e-06
9.11847e-06
9.12366e-06
9.1329e-06
9.14697e-06
9.16555e-06
9.18722e-06
9.20924e-06
9.22749e-06
9.24141e-06
9.25972e-06
9.29787e-06
9.36817e-06
9.47106e-06
9.59571e-06
9.72933e-06
9.86651e-06
1.00105e-05
1.01685e-05
1.03471e-05
1.05518e-05
1.07869e-05
1.10538e-05
1.1351e-05
1.1676e-05
1.20251e-05
1.23922e-05
1.27736e-05
1.31728e-05
1.35984e-05
1.40616e-05
1.45798e-05
1.51759e-05
1.58839e-05
1.68497e-05
1.937e-05
2.5189e-05
9.10145e-06
9.10148e-06
9.10151e-06
9.10149e-06
9.10149e-06
9.10149e-06
9.10148e-06
9.10148e-06
9.10148e-06
9.10149e-06
9.10149e-06
9.10149e-06
9.10151e-06
9.10162e-06
9.10185e-06
9.10209e-06
9.1023e-06
9.10246e-06
9.10289e-06
9.10428e-06
9.10713e-06
9.11101e-06
9.1149e-06
9.11823e-06
9.12171e-06
9.12763e-06
9.13827e-06
9.15443e-06
9.17509e-06
9.19854e-06
9.22136e-06
9.23911e-06
9.25194e-06
9.26994e-06
9.31009e-06
9.38547e-06
9.4958e-06
9.62841e-06
9.76916e-06
9.91216e-06
1.00606e-05
1.02214e-05
1.04017e-05
1.06071e-05
1.08411e-05
1.11038e-05
1.13938e-05
1.17073e-05
1.20387e-05
1.23835e-05
1.27454e-05
1.31343e-05
1.35646e-05
1.40589e-05
1.46505e-05
1.53831e-05
1.64971e-05
1.93655e-05
2.8618e-05
4.30119e-05
9.10145e-06
9.10148e-06
9.10151e-06
9.10149e-06
9.10149e-06
9.10149e-06
9.10149e-06
9.10148e-06
9.10149e-06
9.10149e-06
9.10149e-06
9.1015e-06
9.1015e-06
9.10153e-06
9.1017e-06
9.102e-06
9.10235e-06
9.1026e-06
9.10278e-06
9.10335e-06
9.10522e-06
9.10889e-06
9.11362e-06
9.1181e-06
9.12159e-06
9.12515e-06
9.13172e-06
9.14385e-06
9.1619e-06
9.18458e-06
9.20958e-06
9.23286e-06
9.24978e-06
9.26119e-06
9.27853e-06
9.32041e-06
9.4007e-06
9.5182e-06
9.65848e-06
9.80599e-06
9.95402e-06
1.01055e-05
1.02675e-05
1.04475e-05
1.06508e-05
1.08797e-05
1.11345e-05
1.14126e-05
1.17083e-05
1.20172e-05
1.23412e-05
1.26904e-05
1.30802e-05
1.35377e-05
1.41028e-05
1.48334e-05
1.59908e-05
1.93089e-05
3.05996e-05
5.52159e-05
6.86852e-05
9.10146e-06
9.10148e-06
9.10152e-06
9.10149e-06
9.10149e-06
9.10149e-06
9.10149e-06
9.10149e-06
9.10149e-06
9.10149e-06
9.10149e-06
9.10149e-06
9.10151e-06
9.1015e-06
9.10155e-06
9.1018e-06
9.10223e-06
9.10268e-06
9.10298e-06
9.10318e-06
9.10394e-06
9.10641e-06
9.11098e-06
9.11662e-06
9.12163e-06
9.12509e-06
9.12869e-06
9.13586e-06
9.14933e-06
9.16919e-06
9.19369e-06
9.21997e-06
9.24341e-06
9.25929e-06
9.26893e-06
9.28522e-06
9.32856e-06
9.41344e-06
9.53776e-06
9.68536e-06
9.83898e-06
9.99096e-06
1.01439e-05
1.03055e-05
1.04827e-05
1.06799e-05
1.09001e-05
1.11425e-05
1.14027e-05
1.16759e-05
1.19631e-05
1.22722e-05
1.26182e-05
1.30296e-05
1.35519e-05
1.42503e-05
1.54088e-05
1.89682e-05
3.28785e-05
6.4477e-05
9.24449e-05
8.53149e-05
9.10146e-06
9.10148e-06
9.10152e-06
9.10149e-06
9.10149e-06
9.10149e-06
9.10149e-06
9.10149e-06
9.10149e-06
9.10149e-06
9.10149e-06
9.10149e-06
9.1015e-06
9.10151e-06
9.1015e-06
9.1016e-06
9.10197e-06
9.10255e-06
9.10312e-06
9.10347e-06
9.10369e-06
9.10471e-06
9.10784e-06
9.11337e-06
9.11994e-06
9.12531e-06
9.1287e-06
9.13217e-06
9.13985e-06
9.15453e-06
9.17603e-06
9.20213e-06
9.22943e-06
9.25286e-06
9.26741e-06
9.27491e-06
9.28982e-06
9.33422e-06
9.42327e-06
9.55398e-06
9.70829e-06
9.86718e-06
1.0022e-05
1.0175e-05
1.03336e-05
1.05043e-05
1.06921e-05
1.08993e-05
1.11237e-05
1.13615e-05
1.16125e-05
1.1884e-05
1.2188e-05
1.25513e-05
1.30201e-05
1.36622e-05
1.47674e-05
1.84723e-05
3.47313e-05
7.59886e-05
0.000109983
0.000114122
8.6919e-05
9.10146e-06
9.10149e-06
9.10152e-06
9.1015e-06
9.1015e-06
9.10149e-06
9.10149e-06
9.10149e-06
9.10149e-06
9.10149e-06
9.10149e-06
9.10149e-06
9.10149e-06
9.10151e-06
9.10152e-06
9.10152e-06
9.1017e-06
9.10222e-06
9.10296e-06
9.10369e-06
9.10409e-06
9.10434e-06
9.10566e-06
9.10949e-06
9.11601e-06
9.12343e-06
9.12912e-06
9.13223e-06
9.1355e-06
9.14354e-06
9.15927e-06
9.18219e-06
9.20966e-06
9.23778e-06
9.261e-06
9.27394e-06
9.27897e-06
9.29211e-06
9.33709e-06
9.42977e-06
9.56623e-06
9.72651e-06
9.88977e-06
1.00461e-05
1.01972e-05
1.03495e-05
1.05103e-05
1.06845e-05
1.08739e-05
1.10772e-05
1.12941e-05
1.15305e-05
1.17962e-05
1.21129e-05
1.25254e-05
1.30985e-05
1.40981e-05
1.7811e-05
3.64144e-05
8.80302e-05
0.000131085
0.000134056
0.000115456
7.76216e-05
9.10147e-06
9.10149e-06
9.10152e-06
9.1015e-06
9.1015e-06
9.10149e-06
9.10149e-06
9.10149e-06
9.10149e-06
9.10149e-06
9.10149e-06
9.10149e-06
9.10149e-06
9.1015e-06
9.10151e-06
9.10154e-06
9.10158e-06
9.10187e-06
9.10254e-06
9.1035e-06
9.10439e-06
9.10483e-06
9.10515e-06
9.10677e-06
9.11131e-06
9.11883e-06
9.12703e-06
9.13287e-06
9.13561e-06
9.13856e-06
9.14683e-06
9.16339e-06
9.1875e-06
9.21606e-06
9.24482e-06
9.26763e-06
9.2787e-06
9.28096e-06
9.29187e-06
9.33684e-06
9.43248e-06
9.57399e-06
9.73933e-06
9.90597e-06
1.00622e-05
1.02082e-05
1.0351e-05
1.04989e-05
1.06565e-05
1.08263e-05
1.10097e-05
1.12115e-05
1.1439e-05
1.17116e-05
1.20673e-05
1.25716e-05
1.34431e-05
1.70213e-05
3.77349e-05
0.000101162
0.000153179
0.000157609
0.00013463
0.000103424
6.59288e-05
9.10148e-06
9.10149e-06
9.10153e-06
9.1015e-06
9.1015e-06
9.1015e-06
9.10149e-06
9.10149e-06
9.10149e-06
9.10149e-06
9.1015e-06
9.1015e-06
9.10149e-06
9.10149e-06
9.1015e-06
9.10155e-06
9.1016e-06
9.1017e-06
9.1021e-06
9.10295e-06
9.10416e-06
9.10523e-06
9.10573e-06
9.10611e-06
9.10802e-06
9.11327e-06
9.12172e-06
9.13062e-06
9.13649e-06
9.13877e-06
9.14128e-06
9.14961e-06
9.16678e-06
9.19175e-06
9.22116e-06
9.25036e-06
9.27254e-06
9.28151e-06
9.28073e-06
9.28885e-06
9.33319e-06
9.43123e-06
9.57659e-06
9.74602e-06
9.91463e-06
1.00683e-05
1.02071e-05
1.03389e-05
1.04708e-05
1.06081e-05
1.07564e-05
1.09231e-05
1.11146e-05
1.1346e-05
1.16497e-05
1.20808e-05
1.28345e-05
1.61505e-05
3.85175e-05
0.000114836
0.000176666
0.00018208
0.000157349
0.000120674
8.85717e-05
6.36189e-05
9.10148e-06
9.1015e-06
9.10153e-06
9.1015e-06
9.1015e-06
9.1015e-06
9.1015e-06
9.1015e-06
9.1015e-06
9.1015e-06
9.1015e-06
9.1015e-06
9.1015e-06
9.10149e-06
9.10149e-06
9.10152e-06
9.10161e-06
9.1017e-06
9.10187e-06
9.1024e-06
9.10349e-06
9.10496e-06
9.10622e-06
9.10679e-06
9.10721e-06
9.10941e-06
9.1153e-06
9.1246e-06
9.13407e-06
9.13988e-06
9.14159e-06
9.14358e-06
9.15181e-06
9.16929e-06
9.19481e-06
9.22476e-06
9.25419e-06
9.27549e-06
9.28234e-06
9.2781e-06
9.28298e-06
9.32641e-06
9.42535e-06
9.57338e-06
9.74554e-06
9.91458e-06
1.0065e-05
1.01947e-05
1.03106e-05
1.04223e-05
1.0539e-05
1.06754e-05
1.0837e-05
1.10366e-05
1.12977e-05
1.16628e-05
1.22822e-05
1.52505e-05
3.87571e-05
0.000128424
0.000200949
0.000207819
0.000180985
0.000141309
0.000103921
8.59963e-05
7.44864e-05
9.10149e-06
9.1015e-06
9.10153e-06
9.10151e-06
9.10151e-06
9.1015e-06
9.1015e-06
9.1015e-06
9.1015e-06
9.1015e-06
9.1015e-06
9.1015e-06
9.1015e-06
9.1015e-06
9.10149e-06
9.10152e-06
9.10158e-06
9.10172e-06
9.10186e-06
9.10211e-06
9.1028e-06
9.10414e-06
9.10591e-06
9.10739e-06
9.10801e-06
9.10845e-06
9.11088e-06
9.11734e-06
9.12737e-06
9.13727e-06
9.1429e-06
9.144e-06
9.14541e-06
9.15336e-06
9.17091e-06
9.19655e-06
9.22679e-06
9.25605e-06
9.27654e-06
9.2811e-06
9.2731e-06
9.27472e-06
9.31586e-06
9.41433e-06
9.56372e-06
9.73821e-06
9.90695e-06
1.00513e-05
1.01695e-05
1.02703e-05
1.03686e-05
1.04836e-05
1.0624e-05
1.08026e-05
1.10366e-05
1.13513e-05
1.18397e-05
1.43465e-05
3.84985e-05
0.000141641
0.000225594
0.000234475
0.000205911
0.000162822
0.0001225
0.000101307
9.98726e-05
8.62613e-05
9.1015e-06
9.10151e-06
9.10154e-06
9.10151e-06
9.10151e-06
9.1015e-06
9.1015e-06
9.1015e-06
9.1015e-06
9.1015e-06
9.1015e-06
9.1015e-06
9.1015e-06
9.1015e-06
9.1015e-06
9.10152e-06
9.10158e-06
9.10169e-06
9.10188e-06
9.1021e-06
9.10245e-06
9.10333e-06
9.10494e-06
9.10703e-06
9.10872e-06
9.10938e-06
9.10982e-06
9.1124e-06
9.1193e-06
9.12989e-06
9.14009e-06
9.14543e-06
9.14593e-06
9.14675e-06
9.15434e-06
9.17151e-06
9.19703e-06
9.22714e-06
9.25606e-06
9.27579e-06
9.27779e-06
9.26611e-06
9.26369e-06
9.30129e-06
9.39846e-06
9.54879e-06
9.72482e-06
9.89393e-06
1.00362e-05
1.01487e-05
1.0247e-05
1.03495e-05
1.04713e-05
1.06306e-05
1.08439e-05
1.11281e-05
1.1533e-05
1.35132e-05
3.76218e-05
0.000154209
0.000250359
0.000261882
0.000231851
0.000185643
0.000141948
0.000119775
0.000116922
0.000114538
8.97232e-05
9.10151e-06
9.10151e-06
9.10154e-06
9.10152e-06
9.10151e-06
9.10151e-06
9.10151e-06
9.1015e-06
9.1015e-06
9.1015e-06
9.10151e-06
9.10151e-06
9.10151e-06
9.1015e-06
9.1015e-06
9.10152e-06
9.10158e-06
9.10168e-06
9.10185e-06
9.10212e-06
9.10244e-06
9.10292e-06
9.10397e-06
9.10589e-06
9.1083e-06
9.11019e-06
9.11089e-06
9.11128e-06
9.11392e-06
9.12111e-06
9.13214e-06
9.1424e-06
9.14741e-06
9.14737e-06
9.14767e-06
9.15467e-06
9.17132e-06
9.19651e-06
9.2258e-06
9.25449e-06
9.27309e-06
9.2724e-06
9.25701e-06
9.25013e-06
9.2841e-06
9.37984e-06
9.53318e-06
9.71527e-06
9.8907e-06
1.00344e-05
1.01506e-05
1.0256e-05
1.03696e-05
1.05139e-05
1.071e-05