/*--------------------------------*- C++ -*----------------------------------*\
  =========                 |
  \\      /  F ield         | OpenFOAM: The Open Source CFD Toolbox
   \\    /   O peration     | Website:  https://openfoam.org
    \\  /    A nd           | Version:  dev
     \\/     M anipulation  |
\*---------------------------------------------------------------------------*/
FoamFile
{
    version     2.0;
    format      ascii;
    class       volScalarField;
    location    "25";
    object      nuTilda;
}
// * * * * * * * * * * * * * * * * * * * * * * * * * * * * * * * * * * * * * //

dimensions      [0 2 -1 0 0 0 0];

internalField   nonuniform List<scalar> 
29380
(
6.00211e-05
6.00193e-05
6.00061e-05
6.00182e-05
6.00055e-05
6.00135e-05
6.00172e-05
6.00052e-05
6.00122e-05
6.00083e-05
6.00163e-05
6.00049e-05
6.00116e-05
6.00073e-05
6.001e-05
6.00153e-05
6.00045e-05
6.00109e-05
6.00069e-05
6.00089e-05
6.00093e-05
6.00144e-05
6.00042e-05
6.00102e-05
6.00064e-05
6.00084e-05
6.00082e-05
6.00103e-05
6.00135e-05
6.00039e-05
6.00096e-05
6.00059e-05
6.00077e-05
6.00076e-05
6.00091e-05
6.00111e-05
6.00127e-05
6.00037e-05
6.0009e-05
6.00055e-05
6.00071e-05
6.0007e-05
6.00085e-05
6.00098e-05
6.00127e-05
6.0012e-05
6.00034e-05
6.00084e-05
6.00051e-05
6.00066e-05
6.00064e-05
6.00078e-05
6.00092e-05
6.00112e-05
6.00146e-05
6.00113e-05
6.00032e-05
6.00079e-05
6.00047e-05
6.00061e-05
6.00059e-05
6.00072e-05
6.00085e-05
6.00105e-05
6.00129e-05
6.00168e-05
6.00107e-05
6.0003e-05
6.00074e-05
6.00044e-05
6.00057e-05
6.00054e-05
6.00066e-05
6.00078e-05
6.00096e-05
6.00121e-05
6.00151e-05
6.00187e-05
6.001e-05
6.00028e-05
6.0007e-05
6.00041e-05
6.00052e-05
6.0005e-05
6.0006e-05
6.00071e-05
6.00088e-05
6.00111e-05
6.0014e-05
6.00172e-05
6.00205e-05
6.00093e-05
6.00026e-05
6.00065e-05
6.00038e-05
6.00049e-05
6.00046e-05
6.00055e-05
6.00065e-05
6.00081e-05
6.00101e-05
6.00128e-05
6.00161e-05
6.00191e-05
6.0022e-05
6.00087e-05
6.00024e-05
6.00061e-05
6.00036e-05
6.00045e-05
6.00042e-05
6.0005e-05
6.00059e-05
6.00074e-05
6.00093e-05
6.00117e-05
6.00147e-05
6.00182e-05
6.00199e-05
6.00297e-05
6.00081e-05
6.00022e-05
6.00057e-05
6.00033e-05
6.00042e-05
6.00039e-05
6.00046e-05
6.00054e-05
6.00068e-05
6.00085e-05
6.00107e-05
6.00135e-05
6.00166e-05
6.00197e-05
6.00237e-05
6.00474e-05
6.00076e-05
6.00021e-05
6.00054e-05
6.00031e-05
6.00039e-05
6.00036e-05
6.00042e-05
6.00049e-05
6.00062e-05
6.00078e-05
6.00098e-05
6.00123e-05
6.00152e-05
6.00184e-05
6.00231e-05
6.00376e-05
6.00736e-05
6.00071e-05
6.00019e-05
6.0005e-05
6.00029e-05
6.00036e-05
6.00033e-05
6.00039e-05
6.00045e-05
6.00056e-05
6.00071e-05
6.00089e-05
6.00113e-05
6.00139e-05
6.00171e-05
6.00222e-05
6.00349e-05
6.00596e-05
6.01105e-05
6.00066e-05
6.00018e-05
6.00047e-05
6.00026e-05
6.00034e-05
6.0003e-05
6.00035e-05
6.00041e-05
6.00051e-05
6.00065e-05
6.00081e-05
6.00102e-05
6.00127e-05
6.00159e-05
6.00216e-05
6.00318e-05
6.0055e-05
6.00912e-05
6.01614e-05
6.00062e-05
6.00016e-05
6.00044e-05
6.00025e-05
6.00031e-05
6.00028e-05
6.00033e-05
6.00038e-05
6.00047e-05
6.00059e-05
6.00074e-05
6.00093e-05
6.00116e-05
6.00147e-05
6.00208e-05
6.003e-05
6.00496e-05
6.00843e-05
6.01353e-05
6.02302e-05
6.00058e-05
6.00015e-05
6.00041e-05
6.00023e-05
6.00029e-05
6.00026e-05
6.0003e-05
6.00034e-05
6.00043e-05
6.00054e-05
6.00067e-05
6.00084e-05
6.00105e-05
6.00137e-05
6.00197e-05
6.00286e-05
6.00456e-05
6.00761e-05
6.01254e-05
6.01955e-05
6.03208e-05
6.00054e-05
6.00014e-05
6.00038e-05
6.00021e-05
6.00027e-05
6.00024e-05
6.00027e-05
6.00032e-05
6.00039e-05
6.00049e-05
6.00061e-05
6.00076e-05
6.00097e-05
6.00127e-05
6.00186e-05
6.00275e-05
6.00423e-05
6.00697e-05
6.01138e-05
6.01814e-05
6.02754e-05
6.04371e-05
6.0005e-05
6.00013e-05
6.00036e-05
6.0002e-05
6.00025e-05
6.00022e-05
6.00025e-05
6.00029e-05
6.00036e-05
6.00044e-05
6.00056e-05
6.00069e-05
6.00089e-05
6.00119e-05
6.00175e-05
6.00264e-05
6.00397e-05
6.00643e-05
6.01044e-05
6.01654e-05
6.02561e-05
6.0379e-05
6.05827e-05
6.00047e-05
6.00013e-05
6.00034e-05
6.00019e-05
6.00023e-05
6.0002e-05
6.00023e-05
6.00027e-05
6.00033e-05
6.00041e-05
6.00051e-05
6.00064e-05
6.00083e-05
6.00112e-05
6.00166e-05
6.00251e-05
6.00378e-05
6.00598e-05
6.0096e-05
6.0152e-05
6.02342e-05
6.0353e-05
6.05097e-05
6.07611e-05
6.00044e-05
6.00012e-05
6.00032e-05
6.00017e-05
6.00022e-05
6.00019e-05
6.00022e-05
6.00025e-05
6.0003e-05
6.00037e-05
6.00046e-05
6.00059e-05
6.00077e-05
6.00106e-05
6.00157e-05
6.00237e-05
6.00361e-05
6.00558e-05
6.00888e-05
6.01401e-05
6.02157e-05
6.03239e-05
6.04755e-05
6.06709e-05
6.09747e-05
6.0004e-05
6.00011e-05
6.0003e-05
6.00016e-05
6.0002e-05
6.00018e-05
6.0002e-05
6.00023e-05
6.00028e-05
6.00034e-05
6.00043e-05
6.00054e-05
6.00071e-05
6.001e-05
6.00149e-05
6.00224e-05
6.00346e-05
6.00523e-05
6.00826e-05
6.01297e-05
6.0199e-05
6.02988e-05
6.04375e-05
6.06268e-05
6.0865e-05
6.12257e-05
6.00036e-05
6.0001e-05
6.00028e-05
6.00015e-05
6.00019e-05
6.00016e-05
6.00018e-05
6.00021e-05
6.00025e-05
6.00032e-05
6.00039e-05
6.0005e-05
6.00066e-05
6.00094e-05
6.00141e-05
6.00212e-05
6.0033e-05
6.00492e-05
6.00774e-05
6.01204e-05
6.01843e-05
6.02761e-05
6.04042e-05
6.05781e-05
6.08093e-05
6.10944e-05
6.15149e-05
6.00032e-05
6.00008e-05
6.00026e-05
6.00014e-05
6.00018e-05
6.00015e-05
6.00017e-05
6.00019e-05
6.00023e-05
6.00029e-05
6.00036e-05
6.00047e-05
6.00062e-05
6.00089e-05
6.00134e-05
6.00202e-05
6.00313e-05
6.00466e-05
6.00727e-05
6.01121e-05
6.01711e-05
6.02557e-05
6.03739e-05
6.05351e-05
6.07483e-05
6.10253e-05
6.13601e-05
6.18422e-05
6.00027e-05
6.00007e-05
6.00023e-05
6.00013e-05
6.00017e-05
6.00014e-05
6.00016e-05
6.00017e-05
6.00021e-05
6.00027e-05
6.00034e-05
6.00044e-05
6.00059e-05
6.00084e-05
6.00127e-05
6.00191e-05
6.00295e-05
6.00445e-05
6.00684e-05
6.01048e-05
6.01593e-05
6.02374e-05
6.03465e-05
6.04954e-05
6.06935e-05
6.095e-05
6.12758e-05
6.16621e-05
6.22067e-05
6.00022e-05
6.00006e-05
6.0002e-05
6.00012e-05
6.00016e-05
6.00014e-05
6.00015e-05
6.00016e-05
6.00019e-05
6.00024e-05
6.00031e-05
6.00041e-05
6.00056e-05
6.0008e-05
6.0012e-05
6.00182e-05
6.00279e-05
6.00425e-05
6.00643e-05
6.00982e-05
6.01487e-05
6.02209e-05
6.03217e-05
6.04593e-05
6.06427e-05
6.08816e-05
6.11845e-05
6.15609e-05
6.19998e-05
6.26066e-05
6.00018e-05
6.00005e-05
6.00018e-05
6.0001e-05
6.00014e-05
6.00013e-05
6.00014e-05
6.00015e-05
6.00017e-05
6.00021e-05
6.00028e-05
6.00038e-05
6.00053e-05
6.00076e-05
6.00114e-05
6.00172e-05
6.00264e-05
6.00404e-05
6.00603e-05
6.00923e-05
6.01391e-05
6.0206e-05
6.02992e-05
6.04264e-05
6.05961e-05
6.08178e-05
6.11006e-05
6.14517e-05
6.188e-05
6.23718e-05
6.30397e-05
6.00016e-05
6.00005e-05
6.00016e-05
6.00008e-05
6.00012e-05
6.00011e-05
6.00013e-05
6.00014e-05
6.00016e-05
6.00019e-05
6.00025e-05
6.00035e-05
6.0005e-05
6.00072e-05
6.00108e-05
6.00164e-05
6.00251e-05
6.00383e-05
6.00566e-05
6.00869e-05
6.01303e-05
6.01925e-05
6.02787e-05
6.03963e-05
6.05533e-05
6.07588e-05
6.10218e-05
6.13503e-05
6.17513e-05
6.22319e-05
6.2776e-05
6.3503e-05
6.00015e-05
6.00005e-05
6.00015e-05
6.00007e-05
6.00011e-05
6.0001e-05
6.00012e-05
6.00013e-05
6.00015e-05
6.00018e-05
6.00022e-05
6.00031e-05
6.00046e-05
6.00068e-05
6.00102e-05
6.00156e-05
6.00238e-05
6.00362e-05
6.00534e-05
6.00817e-05
6.01221e-05
6.018e-05
6.02601e-05
6.03689e-05
6.0514e-05
6.07042e-05
6.09483e-05
6.12545e-05
6.16307e-05
6.20821e-05
6.26145e-05
6.32099e-05
6.39931e-05
6.00013e-05
6.00005e-05
6.00014e-05
6.00007e-05
6.00009e-05
6.00008e-05
6.0001e-05
6.00012e-05
6.00015e-05
6.00017e-05
6.00021e-05
6.00028e-05
6.00041e-05
6.00063e-05
6.00096e-05
6.00147e-05
6.00226e-05
6.00342e-05
6.00506e-05
6.00768e-05
6.01144e-05
6.01684e-05
6.02429e-05
6.03438e-05
6.0478e-05
6.06538e-05
6.088e-05
6.11647e-05
6.1516e-05
6.19404e-05
6.24422e-05
6.30255e-05
6.36704e-05
6.45062e-05
6.00011e-05
6.00004e-05
6.00014e-05
6.00007e-05
6.00009e-05
6.00007e-05
6.00009e-05
6.0001e-05
6.00013e-05
6.00016e-05
6.0002e-05
6.00025e-05
6.00037e-05
6.00057e-05
6.00089e-05
6.00138e-05
6.00214e-05
6.00325e-05
6.00482e-05
6.00722e-05
6.01073e-05
6.01576e-05
6.02269e-05
6.03206e-05
6.04449e-05
6.06074e-05
6.08166e-05
6.10806e-05
6.14078e-05
6.18051e-05
6.2278e-05
6.28296e-05
6.34621e-05
6.41541e-05
6.50385e-05
6.00008e-05
6.00004e-05
6.00013e-05
6.00007e-05
6.00009e-05
6.00007e-05
6.00008e-05
6.00009e-05
6.00012e-05
6.00015e-05
6.00019e-05
6.00024e-05
6.00034e-05
6.00052e-05
6.0008e-05
6.00127e-05
6.00201e-05
6.00307e-05
6.00459e-05
6.0068e-05
6.01009e-05
6.01476e-05
6.0212e-05
6.0299e-05
6.04143e-05
6.05647e-05
6.0758e-05
6.10023e-05
6.1306e-05
6.16766e-05
6.21202e-05
6.26413e-05
6.32415e-05
6.39209e-05
6.46574e-05
6.5586e-05
6.00006e-05
6.00003e-05
6.00011e-05
6.00006e-05
6.00008e-05
6.00007e-05
6.00007e-05
6.00007e-05
6.0001e-05
6.00013e-05
6.00018e-05
6.00024e-05
6.00033e-05
6.00047e-05
6.00072e-05
6.00115e-05
6.00185e-05
6.00289e-05
6.00435e-05
6.00641e-05
6.00951e-05
6.01385e-05
6.01982e-05
6.0279e-05
6.03859e-05
6.05251e-05
6.07038e-05
6.09295e-05
6.12107e-05
6.15551e-05
6.19696e-05
6.24595e-05
6.30277e-05
6.36747e-05
6.43987e-05
6.51767e-05
6.61444e-05
6.00005e-05
6.00002e-05
6.00008e-05
6.00005e-05
6.00008e-05
6.00006e-05
6.00007e-05
6.00007e-05
6.00008e-05
6.00011e-05
6.00015e-05
6.00022e-05
6.00033e-05
6.00046e-05
6.00067e-05
6.00103e-05
6.00167e-05
6.00266e-05
6.00407e-05
6.00603e-05
6.00897e-05
6.01304e-05
6.01857e-05
6.02604e-05
6.03594e-05
6.04883e-05
6.06535e-05
6.0862e-05
6.11219e-05
6.1441e-05
6.18267e-05
6.22851e-05
6.28206e-05
6.34344e-05
6.41262e-05
6.48919e-05
6.57079e-05
6.67092e-05
6.00004e-05
6.00002e-05
6.00007e-05
6.00004e-05
6.00006e-05
6.00006e-05
6.00006e-05
6.00007e-05
6.00007e-05
6.00009e-05
6.00013e-05
6.0002e-05
6.00031e-05
6.00045e-05
6.00064e-05
6.00095e-05
6.00149e-05
6.00241e-05
6.00376e-05
6.00564e-05
6.00842e-05
6.01228e-05
6.01745e-05
6.02436e-05
6.03349e-05
6.0454e-05
6.06067e-05
6.07992e-05
6.10391e-05
6.13341e-05
6.16917e-05
6.21189e-05
6.26208e-05
6.32005e-05
6.38584e-05
6.45927e-05
6.53966e-05
6.62466e-05
6.72756e-05
6.00004e-05
6.00002e-05
6.00006e-05
6.00003e-05
6.00005e-05
6.00004e-05
6.00006e-05
6.00006e-05
6.00007e-05
6.00008e-05
6.00011e-05
6.00017e-05
6.00028e-05
6.00044e-05
6.00063e-05
6.00091e-05
6.00136e-05
6.00215e-05
6.0034e-05
6.00519e-05
6.00781e-05
6.01151e-05
6.0164e-05
6.02283e-05
6.03126e-05
6.04223e-05
6.05631e-05
6.07407e-05
6.0962e-05
6.12342e-05
6.15649e-05
6.19614e-05
6.24297e-05
6.2974e-05
6.35967e-05
6.42966e-05
6.50704e-05
6.59086e-05
6.67883e-05
6.78395e-05
6.00003e-05
6.00002e-05
6.00006e-05
6.00003e-05
6.00004e-05
6.00003e-05
6.00004e-05
6.00005e-05
6.00007e-05
6.00008e-05
6.00009e-05
6.00014e-05
6.00023e-05
6.00039e-05
6.0006e-05
6.00089e-05
6.00129e-05
6.00195e-05
6.00304e-05
6.00469e-05
6.00712e-05
6.01067e-05
6.01537e-05
6.02143e-05
6.02925e-05
6.03935e-05
6.05228e-05
6.06862e-05
6.08901e-05
6.1141e-05
6.14461e-05
6.18129e-05
6.2248e-05
6.27565e-05
6.33422e-05
6.4006e-05
6.47453e-05
6.55553e-05
6.64236e-05
6.7329e-05
6.83958e-05
6.00002e-05
6.00002e-05
6.00006e-05
6.00003e-05
6.00004e-05
6.00003e-05
6.00003e-05
6.00004e-05
6.00006e-05
6.00008e-05
6.00009e-05
6.00013e-05
6.0002e-05
6.00033e-05
6.00055e-05
6.00086e-05
6.00126e-05
6.00183e-05
6.00274e-05
6.00418e-05
6.00636e-05
6.00969e-05
6.01424e-05
6.02006e-05
6.0274e-05
6.03674e-05
6.04861e-05
6.0636e-05
6.08231e-05
6.10539e-05
6.13349e-05
6.16734e-05
6.20762e-05
6.25491e-05
6.3097e-05
6.37224e-05
6.44252e-05
6.52008e-05
6.60431e-05
6.69376e-05
6.78636e-05
6.89385e-05
6.00001e-05
6.00001e-05
6.00005e-05
6.00003e-05
6.00004e-05
6.00003e-05
6.00003e-05
6.00004e-05
6.00005e-05
6.00007e-05
6.00009e-05
6.00012e-05
6.00018e-05
6.00028e-05
6.00047e-05
6.00079e-05
6.00122e-05
6.00178e-05
6.00256e-05
6.00375e-05
6.00561e-05
6.0086e-05
6.01293e-05
6.01858e-05
6.02562e-05
6.03435e-05
6.04529e-05
6.05901e-05
6.07613e-05
6.09728e-05
6.12309e-05
6.15426e-05
6.19143e-05
6.23524e-05
6.28625e-05
6.34483e-05
6.41115e-05
6.48503e-05
6.56588e-05
6.65301e-05
6.74456e-05
6.83859e-05
6.94611e-05
6.00001e-05
6.00001e-05
6.00004e-05
6.00003e-05
6.00004e-05
6.00003e-05
6.00003e-05
6.00003e-05
6.00004e-05
6.00005e-05
6.00008e-05
6.00012e-05
6.00018e-05
6.00026e-05
6.00041e-05
6.00069e-05
6.00114e-05
6.00172e-05
6.00247e-05
6.00349e-05
6.00499e-05
6.0075e-05
6.01144e-05
6.01688e-05
6.02373e-05
6.03206e-05
6.04226e-05
6.05486e-05
6.0705e-05
6.08979e-05
6.11341e-05
6.142e-05
6.17622e-05
6.21667e-05
6.26395e-05
6.31854e-05
6.38074e-05
6.45057e-05
6.52776e-05
6.61158e-05
6.70113e-05
6.79417e-05
6.88895e-05
6.9959e-05
6e-05
6e-05
6.00003e-05
6.00002e-05
6.00004e-05
6.00003e-05
6.00003e-05
6.00003e-05
6.00003e-05
6.00004e-05
6.00006e-05
6.00011e-05
6.00018e-05
6.00025e-05
6.00037e-05
6.0006e-05
6.00101e-05
6.00161e-05
6.00238e-05
6.00335e-05
6.00462e-05
6.00657e-05
6.0099e-05
6.01491e-05
6.02155e-05
6.02967e-05
6.03937e-05
6.05107e-05
6.06539e-05
6.08297e-05
6.10447e-05
6.13058e-05
6.16195e-05
6.19918e-05
6.24285e-05
6.29349e-05
6.3515e-05
6.41707e-05
6.49014e-05
6.57035e-05
6.65671e-05
6.74807e-05
6.84191e-05
6.93699e-05
7.04265e-05
6e-05
6e-05
6.00002e-05
6.00002e-05
6.00003e-05
6.00003e-05
6.00003e-05
6.00003e-05
6.00003e-05
6.00003e-05
6.00005e-05
6.00009e-05
6.00016e-05
6.00025e-05
6.00036e-05
6.00054e-05
6.00088e-05
6.00144e-05
6.00223e-05
6.00324e-05
6.00444e-05
6.00599e-05
6.00859e-05
6.01283e-05
6.01901e-05
6.02694e-05
6.03639e-05
6.04749e-05
6.06074e-05
6.0768e-05
6.09633e-05
6.12005e-05
6.14865e-05
6.18276e-05
6.22295e-05
6.26975e-05
6.32359e-05
6.3848e-05
6.45349e-05
6.52953e-05
6.61234e-05
6.70064e-05
6.7932e-05
6.88738e-05
6.98209e-05
7.08546e-05
6e-05
6e-05
6.00002e-05
6.00001e-05
6.00002e-05
6.00002e-05
6.00003e-05
6.00003e-05
6.00003e-05
6.00003e-05
6.00004e-05
6.00007e-05
6.00014e-05
6.00023e-05
6.00035e-05
6.00051e-05
6.00079e-05
6.00126e-05
6.00201e-05
6.00303e-05
6.0043e-05
6.00573e-05
6.00774e-05
6.01101e-05
6.01628e-05
6.02376e-05
6.03303e-05
6.04384e-05
6.05636e-05
6.07117e-05
6.08896e-05
6.11045e-05
6.13637e-05
6.16743e-05
6.20424e-05
6.24731e-05
6.29709e-05
6.35393e-05
6.4181e-05
6.48965e-05
6.56828e-05
6.65312e-05
6.74277e-05
6.83608e-05
6.92994e-05
7.02337e-05
7.12355e-05
6e-05
6e-05
6.00002e-05
6.00001e-05
6.00002e-05
6.00001e-05
6.00002e-05
6.00002e-05
6.00003e-05
6.00003e-05
6.00003e-05
6.00006e-05
6.00012e-05
6.0002e-05
6.00033e-05
6.00049e-05
6.00073e-05
6.00113e-05
6.00177e-05
6.00274e-05
6.00405e-05
6.00558e-05
6.00735e-05
6.00979e-05
6.01384e-05
6.02029e-05
6.0291e-05
6.03976e-05
6.05195e-05
6.0659e-05
6.08226e-05
6.10177e-05
6.12519e-05
6.15328e-05
6.18677e-05
6.2262e-05
6.27201e-05
6.32459e-05
6.3842e-05
6.45109e-05
6.52514e-05
6.6058e-05
6.69211e-05
6.78268e-05
6.87609e-05
6.96869e-05
7.06002e-05
7.15612e-05
5.99999e-05
6e-05
6.00002e-05
6.00001e-05
6.00001e-05
6.00001e-05
6.00001e-05
6.00002e-05
6.00002e-05
6.00002e-05
6.00003e-05
6.00005e-05
6.0001e-05
6.00017e-05
6.00029e-05
6.00045e-05
6.00068e-05
6.00103e-05
6.00159e-05
6.00243e-05
6.00367e-05
6.00532e-05
6.00717e-05
6.00923e-05
6.01216e-05
6.01711e-05
6.02477e-05
6.03497e-05
6.04706e-05
6.06062e-05
6.07599e-05
6.09389e-05
6.11509e-05
6.1404e-05
6.17063e-05
6.20647e-05
6.24839e-05
6.29677e-05
6.35193e-05
6.41409e-05
6.48335e-05
6.55938e-05
6.64153e-05
6.72889e-05
6.81973e-05
6.9123e-05
7.00283e-05
7.09133e-05
7.18229e-05
6e-05
6e-05
6.00001e-05
6.00001e-05
6.00001e-05
6.00001e-05
6.00001e-05
6.00001e-05
6.00002e-05
6.00002e-05
6.00003e-05
6.00004e-05
6.00008e-05
6.00015e-05
6.00026e-05
6.00041e-05
6.00063e-05
6.00095e-05
6.00144e-05
6.00217e-05
6.00327e-05
6.00488e-05
6.00687e-05
6.00901e-05
6.01136e-05
6.01483e-05
6.02071e-05
6.02966e-05
6.04132e-05
6.05482e-05
6.06976e-05
6.08654e-05
6.10593e-05
6.12877e-05
6.15594e-05
6.18824e-05
6.22631e-05
6.27057e-05
6.32131e-05
6.37884e-05
6.44321e-05
6.51434e-05
6.59182e-05
6.67507e-05
6.76284e-05
6.85301e-05
6.94396e-05
7.03166e-05
7.11639e-05
7.20139e-05
6e-05
6e-05
6.00001e-05
6.00001e-05
6.00001e-05
6.00001e-05
6.00001e-05
6.00001e-05
6.00001e-05
6.00002e-05
6.00002e-05
6.00004e-05
6.00007e-05
6.00013e-05
6.00022e-05
6.00037e-05
6.00057e-05
6.00086e-05
6.0013e-05
6.00195e-05
6.00291e-05
6.00435e-05
6.00634e-05
6.00869e-05
6.01108e-05
6.0137e-05
6.01773e-05
6.02458e-05
6.03488e-05
6.04803e-05
6.06295e-05
6.07926e-05
6.09742e-05
6.11825e-05
6.14268e-05
6.17164e-05
6.20591e-05
6.24606e-05
6.29245e-05
6.34537e-05
6.40493e-05
6.47104e-05
6.54354e-05
6.6221e-05
6.7058e-05
6.79303e-05
6.88175e-05
6.97029e-05
7.05424e-05
7.13467e-05
7.21393e-05
6e-05
6e-05
6.00001e-05
6.00001e-05
6.00001e-05
6.00001e-05
6.00001e-05
6.00001e-05
6.00001e-05
6.00001e-05
6.00002e-05
6.00003e-05
6.00006e-05
6.00011e-05
6.00019e-05
6.00033e-05
6.00053e-05
6.00079e-05
6.00116e-05
6.00174e-05
6.00259e-05
6.00384e-05
6.00566e-05
6.00806e-05
6.01073e-05
6.0133e-05
6.01619e-05
6.02078e-05
6.02866e-05
6.04039e-05
6.05502e-05
6.07136e-05
6.08902e-05
6.10849e-05
6.13071e-05
6.15668e-05
6.18733e-05
6.22342e-05
6.26547e-05
6.3138e-05
6.36857e-05
6.42972e-05
6.49709e-05
6.57059e-05
6.64958e-05
6.73281e-05
6.81872e-05
6.9052e-05
6.9904e-05
7.07007e-05
7.14685e-05
7.22128e-05
6e-05
6.00001e-05
6.00001e-05
6.00001e-05
6.00001e-05
6.00001e-05
6.00001e-05
6.00001e-05
6.00001e-05
6.00001e-05
6.00002e-05
6.00003e-05
6.00005e-05
6.00009e-05
6.00016e-05
6.00029e-05
6.00049e-05
6.00074e-05
6.00106e-05
6.00154e-05
6.00228e-05
6.00337e-05
6.00495e-05
6.0072e-05
6.01e-05
6.01292e-05
6.01566e-05
6.01877e-05
6.02392e-05
6.03292e-05
6.04606e-05
6.06218e-05
6.07994e-05
6.09891e-05
6.11965e-05
6.14318e-05
6.1706e-05
6.20281e-05
6.24054e-05
6.2843e-05
6.33428e-05
6.39045e-05
6.45274e-05
6.52101e-05
6.59488e-05
6.6734e-05
6.75537e-05
6.83915e-05
6.92242e-05
7.00374e-05
7.07987e-05
7.15469e-05
7.22516e-05
6e-05
6.00001e-05
6.00001e-05
6.00001e-05
6.00001e-05
6.00001e-05
6.00001e-05
6.00001e-05
6.00001e-05
6.00001e-05
6.00002e-05
6.00003e-05
6.00005e-05
6.00007e-05
6.00012e-05
6.00023e-05
6.00042e-05
6.00069e-05
6.001e-05
6.0014e-05
6.002e-05
6.00292e-05
6.00429e-05
6.00627e-05
6.00895e-05
6.01211e-05
6.01527e-05
6.0181e-05
6.02138e-05
6.02714e-05
6.03722e-05
6.05179e-05
6.06941e-05
6.08858e-05
6.10881e-05
6.13074e-05
6.15551e-05
6.18424e-05
6.21785e-05
6.25706e-05
6.30224e-05
6.35343e-05
6.41059e-05
6.47367e-05
6.54221e-05
6.61557e-05
6.69284e-05
6.77272e-05
6.85338e-05
6.9329e-05
7.01113e-05
7.08549e-05
7.16035e-05
7.22822e-05
6e-05
6.00001e-05
6.00001e-05
6.00001e-05
6.00001e-05
6.00001e-05
6.00001e-05
6.00001e-05
6.00001e-05
6.00001e-05
6.00002e-05
6.00003e-05
6.00005e-05
6.00007e-05
6.0001e-05
6.00017e-05
6.00033e-05
6.00061e-05
6.00095e-05
6.00133e-05
6.00181e-05
6.00254e-05
6.00367e-05
6.00537e-05
6.00777e-05
6.01088e-05
6.0144e-05
6.01772e-05
6.02057e-05
6.02397e-05
6.0303e-05
6.04149e-05
6.05749e-05
6.07662e-05
6.09717e-05
6.1186e-05
6.14164e-05
6.16754e-05
6.19744e-05
6.23227e-05
6.27267e-05
6.31887e-05
6.37088e-05
6.42869e-05
6.49195e-05
6.5599e-05
6.63197e-05
6.70715e-05
6.78393e-05
6.86088e-05
6.93744e-05
7.01441e-05
7.08918e-05
7.16728e-05
7.23499e-05
6e-05
6.00001e-05
6.00001e-05
6.00001e-05
6.00001e-05
6.00001e-05
6.00001e-05
6.00001e-05
6.00001e-05
6.00001e-05
6.00001e-05
6.00003e-05
6.00005e-05
6.00007e-05
6.00009e-05
6.00013e-05
6.00024e-05
6.00048e-05
6.00086e-05
6.00129e-05
6.00174e-05
6.0023e-05
6.00315e-05
6.00452e-05
6.00659e-05
6.00945e-05
6.01298e-05
6.0168e-05
6.02021e-05
6.02296e-05
6.02646e-05
6.03335e-05
6.04564e-05
6.06307e-05
6.08371e-05
6.10559e-05
6.12815e-05
6.1522e-05
6.17909e-05
6.21001e-05
6.2458e-05
6.287e-05
6.33384e-05
6.38633e-05
6.4442e-05
6.50681e-05
6.57342e-05
6.64335e-05
6.7154e-05
6.78844e-05
6.86245e-05
6.93785e-05
7.01589e-05
7.0946e-05
7.18102e-05
7.25518e-05
6e-05
6.00001e-05
6.00001e-05
6.00001e-05
6.00001e-05
6.00001e-05
6.00001e-05
6.00001e-05
6.00001e-05
6.00001e-05
6.00001e-05
6.00002e-05
6.00004e-05
6.00007e-05
6.00009e-05
6.00012e-05
6.00017e-05
6.00033e-05
6.00068e-05
6.00117e-05
6.0017e-05
6.00222e-05
6.00285e-05
6.00383e-05
6.00546e-05
6.00796e-05
6.01126e-05
6.0152e-05
6.01926e-05
6.02264e-05
6.02525e-05
6.02879e-05
6.03623e-05
6.04958e-05
6.06845e-05
6.09057e-05
6.11374e-05
6.13734e-05
6.16229e-05
6.19003e-05
6.2217e-05
6.25809e-05
6.29974e-05
6.34688e-05
6.39928e-05
6.4564e-05
6.51763e-05
6.58205e-05
6.6488e-05
6.71703e-05
6.78701e-05
6.85978e-05
6.93637e-05
7.01938e-05
7.10763e-05
7.21323e-05
7.33759e-05
6e-05
6.00001e-05
6.00001e-05
6.00001e-05
6.00001e-05
6.00001e-05
6.00001e-05
6.00001e-05
6.00001e-05
6.00001e-05
6.00001e-05
6.00001e-05
6.00003e-05
6.00006e-05
6.0001e-05
6.00013e-05
6.00016e-05
6.00023e-05
6.00046e-05
6.00093e-05
6.00156e-05
6.00219e-05
6.00278e-05
6.00345e-05
6.00456e-05
6.00652e-05
6.00942e-05
6.01317e-05
6.01747e-05
6.02169e-05
6.02498e-05
6.02737e-05
6.03092e-05
6.03884e-05
6.05323e-05
6.07353e-05
6.09711e-05
6.12148e-05
6.14603e-05
6.17177e-05
6.20012e-05
6.23222e-05
6.26884e-05
6.3106e-05
6.3575e-05
6.40906e-05
6.46473e-05
6.52373e-05
6.58491e-05
6.64774e-05
6.71272e-05
6.78121e-05
6.85505e-05
6.93681e-05
7.03105e-05
7.14041e-05
7.32167e-05
7.71757e-05
6e-05
6.00001e-05
6.00001e-05
6.00001e-05
6.00001e-05
6.00001e-05
6.00001e-05
6.00001e-05
6.00001e-05
6.00001e-05
6.00001e-05
6.00001e-05
6.00001e-05
6.00004e-05
6.00009e-05
6.00014e-05
6.00018e-05
6.00021e-05
6.00031e-05
6.00063e-05
6.00124e-05
6.00203e-05
6.00277e-05
6.00339e-05
6.00409e-05
6.00537e-05
6.00763e-05
6.01095e-05
6.0151e-05
6.01973e-05
6.02405e-05
6.02716e-05
6.02928e-05
6.03276e-05
6.0411e-05
6.05652e-05
6.07823e-05
6.1032e-05
6.12872e-05
6.15412e-05
6.18044e-05
6.2091e-05
6.24127e-05
6.27782e-05
6.31917e-05
6.3651e-05
6.41513e-05
6.46855e-05
6.52427e-05
6.58144e-05
6.64079e-05
6.70392e-05
6.77307e-05
6.85191e-05
6.94533e-05
7.06314e-05
7.2561e-05
7.8052e-05
8.93349e-05
6e-05
6.00001e-05
6.00001e-05
6.00001e-05
6.00001e-05
6.00001e-05
6.00001e-05
6.00001e-05
6.00001e-05
6.00001e-05
6.00001e-05
6.00001e-05
6.00001e-05
6.00002e-05
6.00006e-05
6.00012e-05
6.00019e-05
6.00024e-05
6.00027e-05
6.00041e-05
6.00084e-05
6.00162e-05
6.00258e-05
6.00342e-05
6.00405e-05
6.00478e-05
6.0062e-05
6.00877e-05
6.01248e-05
6.01702e-05
6.02192e-05
6.02627e-05
6.02913e-05
6.03091e-05
6.03424e-05
6.04296e-05
6.05937e-05
6.08244e-05
6.10875e-05
6.13533e-05
6.16143e-05
6.18807e-05
6.21672e-05
6.24866e-05
6.28462e-05
6.32485e-05
6.36917e-05
6.4169e-05
6.46703e-05
6.51869e-05
6.57216e-05
6.62924e-05
6.69247e-05
6.76606e-05
6.85636e-05
6.97372e-05
7.18174e-05
7.80259e-05
9.4058e-05
0.000111079
6e-05
6.00001e-05
6.00001e-05
6.00001e-05
6.00001e-05
6.00001e-05
6.00001e-05
6.00001e-05
6.00001e-05
6.00001e-05
6.00001e-05
6.00001e-05
6.00001e-05
6.00001e-05
6.00003e-05
6.00008e-05
6.00018e-05
6.00027e-05
6.00032e-05
6.00036e-05
6.00054e-05
6.0011e-05
6.00207e-05
6.0032e-05
6.00413e-05
6.00474e-05
6.00547e-05
6.00703e-05
6.00989e-05
6.01396e-05
6.01885e-05
6.02396e-05
6.02828e-05
6.03085e-05
6.03221e-05
6.03532e-05
6.04436e-05
6.06171e-05
6.08608e-05
6.11365e-05
6.14117e-05
6.16776e-05
6.19444e-05
6.22278e-05
6.254e-05
6.28871e-05
6.32721e-05
6.36918e-05
6.41361e-05
6.45965e-05
6.50745e-05
6.55823e-05
6.61472e-05
6.68158e-05
6.76582e-05
6.87938e-05
7.0887e-05
7.78106e-05
9.69605e-05
0.000123428
0.000131826
6e-05
6.00001e-05
6.00001e-05
6.00001e-05
6.00001e-05
6.00001e-05
6.00001e-05
6.00001e-05
6.00001e-05
6.00001e-05
6.00001e-05
6.00001e-05
6.00001e-05
6.00001e-05
6.00001e-05
6.00004e-05
6.00012e-05
6.00025e-05
6.00036e-05
6.00042e-05
6.00046e-05
6.0007e-05
6.00141e-05
6.00259e-05
6.0039e-05
6.00487e-05
6.00545e-05
6.00615e-05
6.00783e-05
6.01094e-05
6.01534e-05
6.02053e-05
6.02581e-05
6.03005e-05
6.03228e-05
6.03314e-05
6.03595e-05
6.04524e-05
6.06346e-05
6.08904e-05
6.11776e-05
6.14607e-05
6.17293e-05
6.19938e-05
6.22697e-05
6.25683e-05
6.28968e-05
6.32575e-05
6.3644e-05
6.40475e-05
6.4468e-05
6.49156e-05
6.54106e-05
6.60014e-05
6.67647e-05
6.78219e-05
6.98656e-05
7.72426e-05
9.98421e-05
0.000132285
0.000151137
0.000141815
6.00001e-05
6.00001e-05
6.00002e-05
6.00001e-05
6.00001e-05
6.00001e-05
6.00001e-05
6.00001e-05
6.00001e-05
6.00001e-05
6.00001e-05
6.00001e-05
6.00001e-05
6.00002e-05
6.00002e-05
6.00002e-05
6.00006e-05
6.00018e-05
6.00034e-05
6.00048e-05
6.00054e-05
6.00059e-05
6.00091e-05
6.00177e-05
6.00316e-05
6.00462e-05
6.00563e-05
6.00613e-05
6.00678e-05
6.00855e-05
6.01188e-05
6.01657e-05
6.02202e-05
6.02742e-05
6.03155e-05
6.03337e-05
6.03366e-05
6.03611e-05
6.04555e-05
6.06453e-05
6.09121e-05
6.12095e-05
6.14988e-05
6.17679e-05
6.20262e-05
6.22885e-05
6.25677e-05
6.28707e-05
6.3198e-05
6.35437e-05
6.39066e-05
6.43003e-05
6.47399e-05
6.52599e-05
6.59346e-05
6.68776e-05
6.87735e-05
7.64488e-05
0.000102342
0.000142207
0.00016482
0.000163952
0.000140848
6.00001e-05
6.00001e-05
6.00002e-05
6.00001e-05
6.00001e-05
6.00001e-05
6.00001e-05
6.00001e-05
6.00001e-05
6.00001e-05
6.00001e-05
6.00001e-05
6.00001e-05
6.00001e-05
6.00002e-05
6.00002e-05
6.00003e-05
6.0001e-05
6.00025e-05
6.00045e-05
6.00063e-05
6.00069e-05
6.00075e-05
6.00114e-05
6.00216e-05
6.00375e-05
6.00536e-05
6.00638e-05
6.00677e-05
6.00736e-05
6.00918e-05
6.01269e-05
6.01761e-05
6.02326e-05
6.02875e-05
6.03274e-05
6.0341e-05
6.03377e-05
6.03575e-05
6.04523e-05
6.06484e-05
6.09248e-05
6.1231e-05
6.15248e-05
6.17912e-05
6.20378e-05
6.22807e-05
6.25338e-05
6.28047e-05
6.30984e-05
6.34124e-05
6.37603e-05
6.41534e-05
6.46186e-05
6.52124e-05
6.60337e-05
6.76579e-05
7.53763e-05
0.000104571
0.000152479
0.000180826
0.000179138
0.000162596
0.000132541
6.00001e-05
6.00001e-05
6.00002e-05
6.00001e-05
6.00001e-05
6.00001e-05
6.00001e-05
6.00001e-05
6.00001e-05
6.00001e-05
6.00001e-05
6.00001e-05
6.00001e-05
6.00001e-05
6.00002e-05
6.00003e-05
6.00004e-05
6.00006e-05
6.00015e-05
6.00034e-05
6.0006e-05
6.0008e-05
6.00087e-05
6.00094e-05
6.0014e-05
6.00258e-05
6.00436e-05
6.0061e-05
6.00709e-05
6.00736e-05
6.00785e-05
6.00969e-05
6.01333e-05
6.01842e-05
6.02423e-05
6.02978e-05
6.03358e-05
6.03443e-05
6.03341e-05
6.03481e-05
6.04421e-05
6.06434e-05
6.09275e-05
6.12408e-05
6.15364e-05
6.17956e-05
6.20253e-05
6.22476e-05
6.24758e-05
6.27224e-05
6.29908e-05
6.32908e-05
6.36318e-05
6.40393e-05
6.45637e-05
6.52937e-05
6.66236e-05
7.41068e-05
0.000106216
0.000163317
0.000197884
0.000197286
0.000177224
0.000152235
0.000123085
6.00001e-05
6.00001e-05
6.00002e-05
6.00001e-05
6.00001e-05
6.00001e-05
6.00001e-05
6.00001e-05
6.00001e-05
6.00001e-05
6.00001e-05
6.00001e-05
6.00001e-05
6.00001e-05
6.00001e-05
6.00002e-05
6.00004e-05
6.00006e-05
6.00009e-05
6.00021e-05
6.00046e-05
6.00077e-05
6.00101e-05
6.00108e-05
6.00116e-05
6.00168e-05
6.003e-05
6.00497e-05
6.0068e-05
6.00774e-05
6.00788e-05
6.00825e-05
6.01007e-05
6.01377e-05
6.01897e-05
6.02489e-05
6.03047e-05
6.03404e-05
6.03437e-05
6.03257e-05
6.0333e-05
6.04254e-05
6.06292e-05
6.09188e-05
6.12369e-05
6.1531e-05
6.17828e-05
6.20027e-05
6.22045e-05
6.24052e-05
6.262e-05
6.28726e-05
6.31702e-05
6.3532e-05
6.39957e-05
6.46312e-05
6.57484e-05
7.2722e-05
0.000107286
0.000174145
0.000216302
0.000216693
0.000194886
0.000165339
0.000140665
0.000121344
6.00001e-05
6.00001e-05
6.00002e-05
6.00001e-05
6.00001e-05
6.00001e-05
6.00001e-05
6.00001e-05
6.00001e-05
6.00001e-05
6.00001e-05
6.00001e-05
6.00001e-05
6.00001e-05
6.00001e-05
6.00002e-05
6.00004e-05
6.00007e-05
6.00009e-05
6.00014e-05
6.0003e-05
6.0006e-05
6.00097e-05
6.00124e-05
6.00132e-05
6.0014e-05
6.00197e-05
6.00343e-05
6.00554e-05
6.00745e-05
6.00832e-05
6.0083e-05
6.00855e-05
6.0103e-05
6.01401e-05
6.01923e-05
6.02522e-05
6.03075e-05
6.03411e-05
6.03389e-05
6.03125e-05
6.0313e-05
6.04011e-05
6.06046e-05
6.08972e-05
6.122e-05
6.15201e-05
6.17669e-05
6.19674e-05
6.21442e-05
6.23238e-05
6.25379e-05
6.28002e-05
6.31296e-05
6.35512e-05
6.41105e-05
6.50259e-05
7.12017e-05
0.00010777
0.000184881
0.000235654
0.000237692
0.000213779
0.000181214
0.000152337
0.000138841
0.000129998
6.00001e-05
6.00001e-05
6.00002e-05
6.00001e-05
6.00001e-05
6.00001e-05
6.00001e-05
6.00001e-05
6.00001e-05
6.00001e-05
6.00001e-05
6.00001e-05
6.00001e-05
6.00001e-05
6.00001e-05
6.00001e-05
6.00003e-05
6.00006e-05
6.0001e-05
6.00014e-05
6.00021e-05
6.00041e-05
6.00077e-05
6.0012e-05
6.00151e-05
6.00158e-05
6.00166e-05
6.00227e-05
6.00383e-05
6.00606e-05
6.008e-05
6.00879e-05
6.00863e-05
6.00874e-05
6.0104e-05
6.01403e-05
6.01923e-05
6.02518e-05
6.03065e-05
6.03382e-05
6.033e-05
6.02955e-05
6.02873e-05
6.03684e-05
6.057e-05
6.08707e-05
6.12039e-05
6.15061e-05
6.17486e-05
6.19383e-05
6.21101e-05
6.23006e-05
6.25336e-05
6.28362e-05
6.32311e-05
6.37411e-05
6.44879e-05
6.97283e-05
0.000107543
0.000195329
0.000255867
0.000260049
0.000234264
0.00019816
0.000166468
0.000150451
0.000149457
0.000139885
6.00002e-05
6.00001e-05
6.00002e-05
6.00001e-05
6.00001e-05
6.00001e-05
6.00001e-05
6.00001e-05
6.00001e-05
6.00001e-05
6.00001e-05
6.00001e-05
6.00001e-05
6.00001e-05
6.00001e-05
6.00001e-05
6.00003e-05
6.00005e-05
6.00009e-05
6.00015e-05
6.00021e-05
6.00031e-05
6.00054e-05
6.00097e-05
6.00147e-05
6.00181e-05
6.00187e-05
6.00193e-05
6.00256e-05
6.00418e-05
6.0065e-05
6.00844e-05
6.00915e-05
6.00886e-05
6.00884e-05
6.01036e-05
6.01386e-05
6.01898e-05
6.02479e-05
6.03024e-05
6.03315e-05
6.03173e-05
6.02743e-05
6.0256e-05
6.03327e-05
6.05382e-05
6.08483e-05
6.11944e-05
6.15086e-05
6.17553e-05
6.19547e-05
6.21423e-05
6.23544e-05
6.26291e-05
6.29981e-05
6.34802e-05
6.41227e-05
6.83227e-05
0.000106808
0.000205121
0.000276721
0.000283706
0.000256201
0.000216578
0.000181504
0.000164475
0.000162361
0.000161432
0.000144269
6.00002e-05
6.00002e-05
6.00002e-05
6.00002e-05
6.00002e-05
6.00001e-05
6.00001e-05
6.00001e-05
6.00001e-05
6.00001e-05
6.00001e-05
6.00001e-05
6.00001e-05
6.00001e-05
6.00001e-05
6.00001e-05
6.00002e-05
6.00005e-05
6.00008e-05
6.00014e-05
6.00022e-05
6.0003e-05
6.00042e-05
6.0007e-05
6.00119e-05
6.00175e-05
6.00213e-05
6.00218e-05
6.00221e-05
6.00283e-05
6.00451e-05
6.00686e-05
6.00876e-05
6.00938e-05
6.00899e-05
6.00884e-05
6.01021e-05
6.01362e-05
6.01845e-05
6.02413e-05
6.02945e-05
6.03202e-05
6.03008e-05
6.02518e-05
6.02309e-05
6.03063e-05
6.05173e-05
6.08408e-05
6.12069e-05
6.15369e-05
6.18029e-05
6.20254e-05
6.22409e-05
6.24975e-05
6.28377e-05
6.32939e-05
6.38709e-05