/*--------------------------------*- C++ -*----------------------------------*\
  =========                 |
  \\      /  F ield         | OpenFOAM: The Open Source CFD Toolbox
   \\    /   O peration     | Website:  https://openfoam.org
    \\  /    A nd           | Version:  dev
     \\/     M anipulation  |
\*---------------------------------------------------------------------------*/
FoamFile
{
    version     2.0;
    format      ascii;
    class       surfaceScalarField;
    location    "25";
    object      phi;
}
// * * * * * * * * * * * * * * * * * * * * * * * * * * * * * * * * * * * * * //

dimensions      [0 3 -1 0 0 0 0];

internalField   nonuniform List<scalar> 
58294
(
-0.473767
-4.55488e-05
-0.473768
-4.10014e-05
-0.429839
-4.30928e-05
-0.473771
-3.56928e-05
-0.429841
-3.96366e-05
-0.390192
-4.27371e-05
-0.473774
-3.10414e-05
-0.429843
-3.37626e-05
-0.390194
-3.79822e-05
-0.354097
-3.84412e-05
-0.473777
-2.7147e-05
-0.429845
-2.91468e-05
-0.390196
-3.14122e-05
-0.3541
-3.52818e-05
-0.32137
-3.71079e-05
-0.473781
-2.36863e-05
-0.429847
-2.50779e-05
-0.390199
-2.63705e-05
-0.354103
-2.87882e-05
-0.321372
-3.36151e-05
-0.291645
-3.44613e-05
-0.473783
-2.07656e-05
-0.429849
-2.17728e-05
-0.390202
-2.23136e-05
-0.354106
-2.37765e-05
-0.321375
-2.66533e-05
-0.291648
-3.14678e-05
-0.264677
-3.36109e-05
-0.473786
-1.82094e-05
-0.42985
-1.88197e-05
-0.390204
-1.88537e-05
-0.354109
-1.95604e-05
-0.321377
-2.15187e-05
-0.29165
-2.46285e-05
-0.264679
-3.02729e-05
-0.2402
-3.22649e-05
-0.473789
-1.6082e-05
-0.429852
-1.64541e-05
-0.390207
-1.59595e-05
-0.354112
-1.59756e-05
-0.32138
-1.7242e-05
-0.291652
-1.97017e-05
-0.26468
-2.30346e-05
-0.240202
-2.85918e-05
-0.217981
-3.07347e-05
-0.473792
-1.42457e-05
-0.429854
-1.43492e-05
-0.39021
-1.34848e-05
-0.354115
-1.29559e-05
-0.321382
-1.35075e-05
-0.291654
-1.53032e-05
-0.264682
-1.81941e-05
-0.240203
-2.1827e-05
-0.217982
-2.75906e-05
-0.197819
-2.90767e-05
-0.473794
-1.27202e-05
-0.429855
-1.27014e-05
-0.390213
-1.14816e-05
-0.354118
-1.04077e-05
-0.321385
-1.02573e-05
-0.291656
-1.14453e-05
-0.264683
-1.39939e-05
-0.240204
-1.74893e-05
-0.217984
-2.08906e-05
-0.197821
-2.57531e-05
-0.179521
-2.5744e-05
-0.473796
-1.14095e-05
-0.429857
-1.1233e-05
-0.390216
-9.78258e-06
-0.354121
-8.30165e-06
-0.321388
-7.5073e-06
-0.291659
-7.97344e-06
-0.264685
-9.99473e-06
-0.240205
-1.3303e-05
-0.217984
-1.70724e-05
-0.197821
-2.04395e-05
-0.179523
-2.45745e-05
-0.162913
-2.25904e-05
-0.473798
-1.03122e-05
-0.429858
-1.00996e-05
-0.390219
-8.45824e-06
-0.354124
-6.59237e-06
-0.321391
-5.19956e-06
-0.291661
-4.94285e-06
-0.264687
-6.30909e-06
-0.240206
-9.34171e-06
-0.217984
-1.33585e-05
-0.197821
-1.75618e-05
-0.179523
-2.01247e-05
-0.162915
-2.23954e-05
-0.147843
-1.69234e-05
-0.4738
-9.36591e-06
-0.429859
-9.07791e-06
-0.390221
-7.34614e-06
-0.354127
-5.24206e-06
-0.321394
-3.33623e-06
-0.291664
-2.33619e-06
-0.264688
-2.9544e-06
-0.240206
-5.45948e-06
-0.217984
-9.40979e-06
-0.19782
-1.40794e-05
-0.179522
-1.82647e-05
-0.162915
-2.04398e-05
-0.147845
-2.10938e-05
-0.134166
-1.18196e-05
-0.473801
-8.56056e-06
-0.429861
-8.28135e-06
-0.390224
-6.50735e-06
-0.35413
-4.20029e-06
-0.321398
-1.86061e-06
-0.291667
-1.83931e-07
-0.264691
7.00968e-09
-0.240208
-1.77039e-06
-0.217984
-5.38141e-06
-0.197819
-1.03559e-05
-0.179521
-1.55902e-05
-0.162914
-1.99049e-05
-0.147845
-2.07942e-05
-0.134168
-1.8894e-05
-0.12175
-3.95413e-06
-0.473803
-7.85959e-06
-0.429861
-7.54978e-06
-0.390226
-5.80097e-06
-0.354133
-3.42608e-06
-0.321401
-7.78653e-07
-0.291671
1.53878e-06
-0.264693
2.55586e-06
-0.240209
1.61823e-06
-0.217984
-1.42697e-06
-0.197818
-6.28889e-06
-0.179519
-1.20702e-05
-0.162912
-1.76427e-05
-0.147843
-2.16433e-05
-0.134168
-2.19791e-05
-0.121752
-1.79366e-05
-0.110482
2.43571e-06
-0.473804
-7.25053e-06
-0.429863
-6.96247e-06
-0.390229
-5.27451e-06
-0.354136
-2.863e-06
-0.321405
7.01347e-09
-0.291674
2.83715e-06
-0.264697
4.62866e-06
-0.240211
4.6298e-06
-0.217985
2.39855e-06
-0.197818
-2.03181e-06
-0.179517
-8.0156e-06
-0.162909
-1.45901e-05
-0.14784
-2.04313e-05
-0.134165
-2.43001e-05
-0.121751
-2.31693e-05
-0.110484
-1.62999e-05
-0.100255
1.13496e-05
-0.473806
-6.7135e-06
-0.429863
-6.41031e-06
-0.390231
-4.82025e-06
-0.354139
-2.47359e-06
-0.321408
4.88616e-07
-0.291678
3.73848e-06
-0.2647
6.2495e-06
-0.240214
7.21856e-06
-0.217986
5.9327e-06
-0.197817
2.18395e-06
-0.179516
-3.64536e-06
-0.162907
-1.06849e-05
-0.147837
-1.77415e-05
-0.134162
-2.35924e-05
-0.121748
-2.69685e-05
-0.110482
-2.53283e-05
-0.100256
-1.62363e-05
-0.0909694
1.75352e-05
-0.473806
-6.23737e-06
-0.429864
-5.94933e-06
-0.390233
-4.47598e-06
-0.354142
-2.21084e-06
-0.321411
7.7815e-07
-0.291682
4.30324e-06
-0.264704
7.41025e-06
-0.240217
9.31283e-06
-0.217988
9.06952e-06
-0.197818
6.24374e-06
-0.179514
9.4667e-07
-0.162904
-6.18659e-06
-0.147833
-1.40836e-05
-0.134158
-2.15695e-05
-0.121745
-2.7415e-05
-0.110479
-3.0488e-05
-0.100253
-2.74919e-05
-0.0909697
-1.56763e-05
-0.0825397
2.58104e-05
-0.473807
-5.81184e-06
-0.429865
-5.50806e-06
-0.390234
-4.16622e-06
-0.354144
-2.04413e-06
-0.321414
8.69714e-07
-0.291685
4.56065e-06
-0.264707
8.14506e-06
-0.24022
1.09065e-05
-0.21799
1.17423e-05
-0.197818
1.00386e-05
-0.179513
5.56227e-06
-0.162902
-1.34079e-06
-0.14783
-9.69179e-06
-0.134154
-1.82474e-05
-0.12174
-2.58497e-05
-0.110475
-3.14484e-05
-0.10025
-3.39702e-05
-0.0909669
-3.06951e-05
-0.0825394
-1.67991e-05
-0.0748783
3.01387e-05
-0.473808
-5.42812e-06
-0.429866
-5.12583e-06
-0.390236
-3.91928e-06
-0.354147
-1.9404e-06
-0.321417
8.61103e-07
-0.291689
4.59433e-06
-0.264711
8.51139e-06
-0.240224
1.20028e-05
-0.217993
1.39048e-05
-0.19782
1.34019e-05
-0.179513
9.93774e-06
-0.1629
3.66251e-06
-0.147827
-4.67596e-06
-0.13415
-1.39709e-05
-0.121735
-2.29877e-05
-0.11047
-3.06863e-05
-0.100245
-3.61068e-05
-0.0909629
-3.82117e-05
-0.0825361
-3.38298e-05
-0.0748773
-1.74966e-05
-0.0679291
3.62242e-05
-0.473809
-5.08052e-06
-0.429866
-4.75669e-06
-0.390237
-3.6858e-06
-0.354149
-1.87946e-06
-0.32142
7.47375e-07
-0.291693
4.43042e-06
-0.264715
8.54776e-06
-0.240228
1.26251e-05
-0.217997
1.55006e-05
-0.197822
1.62494e-05
-0.179514
1.4053e-05
-0.162898
8.75375e-06
-0.147823
7.60106e-07
-0.134145
-8.95212e-06
-0.12173
-1.9049e-05
-0.110465
-2.83127e-05
-0.10024
-3.58482e-05
-0.0909581
-4.08362e-05
-0.0825318
-4.23269e-05
-0.0748735
-3.79916e-05
-0.0679275
-1.97496e-05
-0.0616105
3.75244e-05
-0.473809
-4.76346e-06
-0.429867
-4.42811e-06
-0.390239
-3.48764e-06
-0.354151
-1.84171e-06
-0.321423
5.99354e-07
-0.291696
4.14979e-06
-0.264719
8.34e-06
-0.240233
1.28327e-05
-0.218
1.65652e-05
-0.197825
1.85418e-05
-0.179515
1.76858e-05
-0.162898
1.35427e-05
-0.147821
6.25664e-06
-0.134141
-3.36922e-06
-0.121725
-1.41196e-05
-0.110459
-2.47211e-05
-0.100234
-3.40897e-05
-0.0909525
-4.14615e-05
-0.0825266
-4.61347e-05
-0.074869
-4.70811e-05
-0.0679233
-4.19482e-05
-0.0616083
-2.14853e-05
-0.0558768
4.05136e-05
-0.47381
-4.4732e-06
-0.429868
-4.11154e-06
-0.39024
-3.29331e-06
-0.354152
-1.81612e-06
-0.321425
4.09932e-07
-0.291699
3.77019e-06
-0.264723
7.92531e-06
-0.240237
1.2675e-05
-0.218005
1.70996e-05
-0.197829
2.02012e-05
-0.179517
2.07579e-05
-0.162898
1.80522e-05
-0.147819
1.1866e-05
-0.134137
2.70929e-06
-0.12172
-8.36959e-06
-0.110453
-2.0071e-05
-0.100228
-3.10262e-05
-0.0909463
-4.02903e-05
-0.0825207
-4.72829e-05
-0.0748636
-5.13762e-05
-0.0679186
-5.15826e-05
-0.0616038
-4.68331e-05
-0.0558742
-2.45123e-05
-0.0506685
3.84724e-05
-0.47381
-4.20547e-06
-0.429869
-3.82538e-06
-0.390241
-3.11984e-06
-0.354154
-1.79259e-06
-0.321427
2.25648e-07
-0.291702
3.35396e-06
-0.264727
7.38568e-06
-0.240241
1.22377e-05
-0.218009
1.71769e-05
-0.197833
2.12671e-05
-0.17952
2.3219e-05
-0.162899
2.20189e-05
-0.147818
1.71309e-05
-0.134134
8.78834e-06
-0.121715
-2.16616e-06
-0.110447
-1.44468e-05
-0.100221
-2.66995e-05
-0.0909395
-3.77362e-05
-0.0825141
-4.68266e-05
-0.0748575
-5.34597e-05
-0.067913
-5.70983e-05
-0.061599
-5.65686e-05
-0.0558694
-5.13241e-05
-0.0506656
-2.68913e-05
-0.0459347
3.84542e-05
-0.47381
-3.95918e-06
-0.429869
-3.55092e-06
-0.390242
-2.94738e-06
-0.354155
-1.76696e-06
-0.321429
3.62017e-08
-0.291705
2.90857e-06
-0.26473
6.74775e-06
-0.240245
1.15747e-05
-0.218014
1.68534e-05
-0.197838
2.17421e-05
-0.179524
2.49798e-05
-0.162901
2.53793e-05
-0.147818
2.20936e-05
-0.134132
1.49829e-05
-0.121711
4.57408e-06
-0.110441
-7.93934e-06
-0.100214
-2.1188e-05
-0.0909322
-3.39295e-05
-0.082507
-4.49279e-05
-0.0748506
-5.36447e-05
-0.0679067
-5.971e-05
-0.0615933
-6.26149e-05
-0.0558646
-6.11449e-05
-0.0506607
-5.6568e-05
-0.0459317
-3.02159e-05
-0.0416375
3.36197e-05
-0.47381
-3.73008e-06
-0.42987
-3.30198e-06
-0.390242
-2.78875e-06
-0.354156
-1.73521e-06
-0.32143
-1.29593e-07
-0.291707
2.47595e-06
-0.264733
6.07599e-06
-0.240249
1.07691e-05
-0.218019
1.62114e-05
-0.197843
2.17011e-05
-0.179528
2.6091e-05
-0.162904
2.80593e-05
-0.147819
2.6465e-05
-0.13413
2.07943e-05
-0.121707
1.12918e-05
-0.110435
-1.03513e-06
-0.100207
-1.48411e-05
-0.0909247
-2.87733e-05
-0.0824992
-4.16292e-05
-0.0748431
-5.23418e-05
-0.0678996
-6.06582e-05
-0.0615869
-6.61787e-05
-0.0558589
-6.84637e-05
-0.050656
-6.60112e-05
-0.0459267
-6.1186e-05
-0.0416345
-3.2728e-05
-0.0377354
3.12983e-05
-0.473811
-3.51777e-06
-0.42987
-3.06502e-06
-0.390243
-2.63182e-06
-0.354157
-1.6968e-06
-0.321432
-2.8374e-07
-0.29171
2.05607e-06
-0.264736
5.38317e-06
-0.240253
9.86343e-06
-0.218023
1.53242e-05
-0.197848
2.12139e-05
-0.179533
2.6542e-05
-0.162908
2.99705e-05
-0.147821
3.01494e-05
-0.13413
2.62392e-05
-0.121704
1.81082e-05
-0.11043
6.42415e-06
-0.100201
-7.56887e-06
-0.0909171
-2.24077e-05
-0.0824911
-3.67944e-05
-0.074835
-4.97386e-05
-0.0678919
-6.00697e-05
-0.0615797
-6.77801e-05
-0.0558525
-7.25367e-05
-0.0506503
-7.39172e-05
-0.0459222
-7.02846e-05
-0.0416296
-6.63457e-05
-0.0377325
-3.58665e-05
-0.034192
2.47204e-05
-0.473811
-3.31963e-06
-0.429871
-2.84951e-06
-0.390244
-2.48546e-06
-0.354158
-1.65107e-06
-0.321433
-4.0957e-07
-0.291712
1.67318e-06
-0.264739
4.71472e-06
-0.240257
8.92104e-06
-0.218028
1.42672e-05
-0.197853
2.03619e-05
-0.179538
2.64235e-05
-0.162913
3.1159e-05
-0.147824
3.30955e-05
-0.134131
3.10732e-05
-0.121702
2.45554e-05
-0.110426
1.38544e-05
-0.100195
9.06336e-08
-0.0909095
-1.52696e-05
-0.0824828
-3.08248e-05
-0.0748264
-4.54067e-05
-0.0678835
-5.81014e-05
-0.0615719
-6.78045e-05
-0.0558454
-7.4903e-05
-0.050644
-7.8923e-05
-0.0459167
-7.9509e-05
-0.0416254
-7.46457e-05
-0.0377277
-7.06532e-05
-0.0341893
-3.80966e-05
-0.030976
2.1254e-05
-0.473811
-3.13484e-06
-0.429872
-2.64658e-06
-0.390244
-2.34196e-06
-0.354159
-1.59905e-06
-0.321434
-5.18307e-07
-0.291713
1.32109e-06
-0.264741
4.0709e-06
-0.24026
7.97056e-06
-0.218032
1.31034e-05
-0.197858
1.92415e-05
-0.179544
2.57977e-05
-0.162918
3.16205e-05
-0.147828
3.52091e-05
-0.134133
3.51398e-05
-0.121702
3.05067e-05
-0.110423
2.13058e-05
-0.100189
8.30083e-06
-0.090902
-7.17473e-06
-0.0824743
-2.36001e-05
-0.0748176
-3.96392e-05
-0.0678746
-5.41993e-05
-0.0615633
-6.66651e-05
-0.0558375
-7.56412e-05
-0.050637
-8.19121e-05
-0.0459106
-8.49735e-05
-0.0416202
-8.44987e-05
-0.037724
-7.82348e-05
-0.0341849
-7.52745e-05
-0.0309735
-4.06632e-05
-0.0280583
1.41067e-05
-0.473811
-2.96189e-06
-0.429873
-2.46205e-06
-0.390245
-2.20788e-06
-0.35416
-1.54146e-06
-0.321435
-6.01091e-07
-0.291715
1.01403e-06
-0.264743
3.47882e-06
-0.240263
7.05097e-06
-0.218036
1.18938e-05
-0.197862
1.7922e-05
-0.179549
2.47662e-05
-0.162923
3.1442e-05
-0.147833
3.65097e-05
-0.134136
3.83798e-05
-0.121702
3.58525e-05
-0.11042
2.84613e-05
-0.100184
1.65329e-05
-0.0908951
1.30548e-06
-0.082466
-1.56151e-05
-0.0748085
-3.27667e-05
-0.0678654
-4.89795e-05
-0.0615542
-6.33048e-05
-0.0558289
-7.52241e-05
-0.0506293
-8.32164e-05
-0.0459038
-8.86782e-05
-0.0416144
-9.08207e-05
-0.0377192
-8.93923e-05
-0.0341816
-8.17138e-05
-0.0309695
-7.88336e-05
-0.0280562
-4.22568e-05
-0.0254115
1.04448e-05
-0.473811
-2.79901e-06
-0.429873
-2.29002e-06
-0.390245
-2.07793e-06
-0.354161
-1.47996e-06
-0.321436
-6.67632e-07
-0.291716
7.42124e-07
-0.264745
2.93423e-06
-0.240266
6.17397e-06
-0.218039
1.06791e-05
-0.197867
1.64968e-05
-0.179555
2.3419e-05
-0.162929
3.06973e-05
-0.147838
3.70171e-05
-0.13414
4.07484e-05
-0.121704
4.03624e-05
-0.110419
3.49861e-05
-0.10018
2.46312e-05
-0.0908888
1.02691e-05
-0.0824579
-6.66919e-06
-0.0747994
-2.4621e-05
-0.0678558
-4.22196e-05
-0.0615448
-5.84385e-05
-0.0558198
-7.22873e-05
-0.0506208
-8.37259e-05
-0.0458964
-9.06379e-05
-0.041608
-9.50714e-05
-0.0377139
-9.60805e-05
-0.0341773
-9.34711e-05
-0.0309668
-8.42617e-05
-0.0280527
-8.25233e-05
-0.0254098
-4.3989e-05
-0.0230118
3.65321e-06
-0.473811
-2.64578e-06
-0.429874
-2.13313e-06
-0.390245
-1.95696e-06
-0.354161
-1.41556e-06
-0.321437
-7.13155e-07
-0.291717
5.12746e-07
-0.264747
2.44939e-06
-0.240268
5.36407e-06
-0.218043
9.49722e-06
-0.197871
1.50101e-05
-0.17956
2.1854e-05
-0.162936
2.94888e-05
-0.147844
3.68038e-05
-0.134145
4.21948e-05
-0.121707
4.39598e-05
-0.11042
4.087e-05
-0.100177
3.25042e-05
-0.0908833
1.93722e-05
-0.0824503
2.71379e-06
-0.0747904
-1.5739e-05
-0.0678462
-3.44035e-05
-0.061535
-5.21311e-05
-0.0558103
-6.80681e-05
-0.0506119
-8.1271e-05
-0.0458881
-9.19301e-05
-0.041601
-9.74957e-05
-0.037708
-0.000100949
-0.0341726
-0.000100899
-0.0309631
-9.72354e-05
-0.0280506
-8.65559e-05
-0.0254067
-8.50309e-05
-0.0230105
-4.477e-05
-0.0208353
5.98057e-07
-0.473811
-2.50149e-06
-0.429874
-1.98754e-06
-0.390245
-1.8407e-06
-0.354162
-1.35003e-06
-0.321438
-7.4584e-07
-0.291719
3.1611e-07
-0.264749
2.01689e-06
-0.24027
4.61857e-06
-0.218046
8.37484e-06
-0.197875
1.35303e-05
-0.179565
2.01523e-05
-0.162942
2.793e-05
-0.147851
3.59536e-05
-0.134151
4.27939e-05
-0.121711
4.66171e-05
-0.110421
4.58554e-05
-0.100176
3.96647e-05
-0.090879
2.81897e-05
-0.0824435
1.24431e-05
-0.0747817
-5.93629e-06
-0.0678365
-2.53324e-05
-0.0615249
-4.43332e-05
-0.0558004
-6.1956e-05
-0.0506024
-7.75131e-05
-0.0458795
-8.97906e-05
-0.0415931
-9.97864e-05
-0.0377016
-0.000103922
-0.0341673
-0.000106191
-0.030959
-0.000104901
-0.0280475
-0.000100036
-0.0254053
-8.78314e-05
-0.023008
-8.75324e-05
-0.0208345
-4.55527e-05
-0.0188639
-5.24663e-06
-0.473811
-2.36521e-06
-0.429875
-1.8551e-06
-0.390246
-1.73279e-06
-0.354163
-1.28385e-06
-0.321438
-7.63216e-07
-0.291719
1.55058e-07
-0.26475
1.64207e-06
-0.240272
3.95008e-06
-0.218048
7.32688e-06
-0.197879
1.20869e-05
-0.17957
1.83844e-05
-0.162948
2.61096e-05
-0.147858
3.45888e-05
-0.134158
4.25712e-05
-0.121717
4.82604e-05
-0.110425
4.98545e-05
-0.100176
4.61301e-05
-0.0908758
3.67661e-05
-0.0824375
2.23966e-05
-0.0747736
4.43702e-06
-0.0678269
-1.54715e-05
-0.0615148
-3.55708e-05
-0.0557903
-5.45978e-05
-0.0505927
-7.1841e-05
-0.0458704
-8.67504e-05
-0.041585
-9.79824e-05
-0.0376942
-0.000107038
-0.0341616
-0.000109482
-0.0309545
-0.000110666
-0.0280443
-0.000108276
-0.025403
-0.000102352
-0.0230073
-8.87734e-05
-0.0208327
-8.87981e-05
-0.0188635
-4.5445e-05
-0.0170773
-7.39567e-06
-0.473811
-2.23702e-06
-0.429876
-1.73228e-06
-0.390246
-1.63046e-06
-0.354163
-1.21853e-06
-0.321439
-7.7152e-07
-0.29172
2.08984e-08
-0.264751
1.31524e-06
-0.240274
3.35124e-06
-0.218051
6.36597e-06
-0.197883
1.07166e-05
-0.179575
1.66198e-05
-0.162953
2.41335e-05
-0.147864
3.28118e-05
-0.134165
4.16648e-05
-0.121723
4.89703e-05
-0.110429
5.28377e-05
-0.100178
5.16293e-05
-0.0908742
4.45881e-05
-0.0824327
3.19804e-05
-0.0747662
1.4969e-05
-0.0678178
-4.809e-06
-0.0615047
-2.55627e-05
-0.0557799
-4.58326e-05
-0.0505826
-6.45772e-05
-0.0458609
-8.12576e-05
-0.0415763
-9.5506e-05
-0.0376868
-0.000105357
-0.0341549
-0.000113642
-0.0309497
-0.000114366
-0.0280406
-0.000114304
-0.0254006
-0.000110677
-0.0230058
-0.000103628
-0.0208327
-8.86749e-05
-0.0188623
-9.00027e-05
-0.0170774
-4.52822e-05
-0.0154596
-1.20727e-05
-0.473811
-2.11519e-06
-0.429876
-1.62043e-06
-0.390246
-1.53567e-06
-0.354164
-1.15463e-06
-0.321439
-7.69442e-07
-0.291721
-8.57573e-08
-0.264752
1.03769e-06
-0.240275
2.82511e-06
-0.218053
5.49636e-06
-0.197886
9.43247e-06
-0.179579
1.48937e-05
-0.162959
2.20792e-05
-0.147871
3.0742e-05
-0.134172
4.01556e-05
-0.12173
4.87848e-05
-0.110435
5.47162e-05
-0.100181
5.60835e-05
-0.0908741
5.16702e-05
-0.0824291
4.1289e-05
-0.0747598
2.5724e-05
-0.0678092
6.50882e-06
-0.0614948
-1.45965e-05
-0.0557694
-3.6029e-05
-0.0505723
-5.62593e-05
-0.0458512
-7.44517e-05
-0.0415674
-9.03416e-05
-0.0376787
-0.000103688
-0.0341483
-0.000112086
-0.0309438
-0.000119366
-0.0280367
-0.000118149
-0.0253979
-0.000117001
-0.0230042
-0.000112351
-0.0208319
-0.000104338
-0.0188629
-8.82455e-05
-0.0170768
-9.0018e-05
-0.0154601
-4.4347e-05
-0.0139947
-1.31562e-05
-0.473811
-2.00013e-06
-0.429877
-1.51601e-06
-0.390246
-1.44663e-06
-0.354164
-1.09288e-06
-0.32144
-7.617e-07
-0.291722
-1.71947e-07
-0.264753
7.99674e-07
-0.240277
2.36259e-06
-0.218055
4.71803e-06
-0.197888
8.25423e-06
-0.179583
1.32526e-05
-0.162964
2.00175e-05
-0.147877
2.84905e-05
-0.13418
3.81903e-05
-0.121738
4.78222e-05
-0.110442
5.55946e-05
-0.100186
5.94308e-05
-0.0908756
5.77261e-05
-0.0824272
4.97958e-05
-0.0747546
3.60815e-05
-0.0678014
1.7881e-05
-0.0614853
-3.06357e-06
-0.0557591
-2.50372e-05
-0.0505618
-4.64888e-05
-0.0458411
-6.62295e-05
-0.0415581
-8.36394e-05
-0.0376704
-9.85955e-05
-0.034141
-0.000111099
-0.0309382
-0.000117687
-0.0280318
-0.000124202
-0.025395
-0.000121097
-0.0230025
-0.000118757
-0.0208313
-0.00011299
-0.018863
-0.000104036
-0.0170781
-8.68303e-05
-0.0154601
-8.99604e-05
-0.0139956
-4.33402e-05
-0.0126683
-1.66585e-05
-0.47381
-1.89249e-06
-0.429878
-1.42006e-06
-0.390246
-1.36376e-06
-0.354164
-1.03375e-06
-0.32144
-7.47428e-07
-0.291722
-2.37862e-07
-0.264754
6.0091e-07
-0.240278
1.96162e-06
-0.218056
4.02863e-06
-0.197891
7.17925e-06
-0.179586
1.17124e-05
-0.162969
1.80002e-05
-0.147884
2.61398e-05
-0.134187
3.58871e-05
-0.121746
4.61954e-05
-0.110449
5.54743e-05
-0.100192
6.16168e-05
-0.0908788
6.26709e-05
-0.0824268
5.75364e-05
-0.0747507
4.61384e-05
-0.0677946
2.94391e-05
-0.0614764
9.10089e-06
-0.055749
-1.30633e-05
-0.0505513
-3.54381e-05
-0.0458308
-5.68281e-05
-0.0415485
-7.59216e-05
-0.0376618
-9.23255e-05
-0.0341336
-0.000106155
-0.0309317
-0.00011761
-0.0280272
-0.00012241
-0.0253911
-0.000127976
-0.0230006
-0.000122818
-0.0208305
-0.000119502
-0.0188632
-0.000112902
-0.0170789
-0.000103157
-0.015462
-8.51444e-05
-0.0139961
-8.88012e-05
-0.0126696
-4.16888e-05
-0.011468
-1.6842e-05
-0.47381
-1.78933e-06
-0.429878
-1.33156e-06
-0.390246
-1.28577e-06
-0.354165
-9.77072e-07
-0.32144
-7.30088e-07
-0.291723
-2.89157e-07
-0.264755
4.33472e-07
-0.240279
1.61393e-06
-0.218058
3.42121e-06
-0.197893
6.21528e-06
-0.17959
1.02935e-05
-0.162973
1.60748e-05
-0.147889
2.37791e-05
-0.134194
3.33595e-05
-0.121754
4.40546e-05
-0.110458
5.45088e-05
-0.100199
6.2692e-05
-0.0908835
6.64572e-05
-0.0824282
6.41908e-05
-0.0747484
5.53677e-05
-0.067789
4.05675e-05
-0.0614683
2.12806e-05
-0.0557394
-6.6458e-07
-0.0505409
-2.35339e-05
-0.0458204
-4.59052e-05
-0.0415386
-6.66663e-05
-0.0376529
-8.47371e-05
-0.0341259
-9.99678e-05
-0.0309253
-0.000112583
-0.0280218
-0.000123153
-0.0253876
-0.000125799
-0.0229978
-0.000130722
-0.0208297
-0.000123662
-0.0188634
-0.000119308
-0.01708
-0.000111808
-0.0154635
-0.000101363
-0.0139985
-8.257e-05
-0.0126706
-8.7608e-05
-0.0114695
-3.99871e-05
-0.0103819
-1.93181e-05
-0.47381
-1.69304e-06
-0.429879
-1.24901e-06
-0.390247
-1.21394e-06
-0.354165
-9.2317e-07
-0.321441
-7.08746e-07
-0.291723
-3.26266e-07
-0.264755
2.95735e-07
-0.24028
1.31664e-06
-0.218059
2.89132e-06
-0.197895
5.35086e-06
-0.179592
8.99832e-06
-0.162977
1.42619e-05
-0.147895
2.1465e-05
-0.134201
3.07153e-05
-0.121762
4.15194e-05
-0.110466
5.28079e-05
-0.100207
6.26988e-05
-0.0908898
6.89811e-05
-0.0824314
6.96841e-05
-0.0747478
6.37584e-05
-0.0677848
5.13663e-05
-0.0614612
3.36232e-05
-0.0557303
1.23188e-05
-0.0505308
-1.06971e-05
-0.0458101
-3.38177e-05
-0.0415286
-5.57993e-05
-0.0376437
-7.59483e-05
-0.0341178
-9.28923e-05
-0.0309186
-0.000106791
-0.0280164
-0.000118053
-0.0253833
-0.00012757
-0.0229956
-0.000128204
-0.0208279
-0.000132337
-0.0188637
-0.000123267
-0.0170811
-0.000118136
-0.0154654
-0.000110071
-0.0140007
-9.90514e-05
-0.0126735
-7.98313e-05
-0.011471
-8.5457e-05
-0.0103838
-3.77825e-05
-0.00939909
-1.86984e-05
-0.47381
-1.60053e-06
-0.429879
-1.17336e-06
-0.390247
-1.14561e-06
-0.354165
-8.72709e-07
-0.321441
-6.85914e-07
-0.291723
-3.53245e-07
-0.264756
1.81653e-07
-0.240281
1.06154e-06
-0.21806
2.43153e-06
-0.197897
4.58806e-06
-0.179595
7.82899e-06
-0.162981
1.25869e-05
-0.1479
1.92476e-05
-0.134208
2.80442e-05
-0.12177
3.87282e-05
-0.110475
5.05179e-05
-0.100216
6.1778e-05
-0.0908974
7.03222e-05
-0.0824363
7.39301e-05
-0.0747491
7.10839e-05
-0.0677823
6.13532e-05
-0.0614553
4.5523e-05
-0.055722
2.52702e-05
-0.0505211
2.51073e-06
-0.0457999
-2.10335e-05
-0.0415186
-4.39689e-05
-0.0376343
-6.52565e-05
-0.0341094
-8.43246e-05
-0.0309116
-9.98463e-05
-0.0280109
-0.00011233
-0.0253791
-0.0001222
-0.0229923
-0.00013093
-0.0208269
-0.000129196
-0.018863
-0.000132897
-0.0170824
-0.00012206
-0.0154674
-0.000116123
-0.0140033
-0.000107432
-0.0126763
-9.59879e-05
-0.0114744
-7.63371e-05
-0.0103856
-8.33144e-05
-0.0094012
-3.55586e-05
-0.00850943
-2.031e-05
-0.47381
-1.51283e-06
-0.42988
-1.10254e-06
-0.390247
-1.08311e-06
-0.354166
-8.24613e-07
-0.321441
-6.61586e-07
-0.291724
-3.70571e-07
-0.264756
8.94706e-08
-0.240281
8.4598e-07
-0.218061
2.03478e-06
-0.197898
3.91534e-06
-0.179597
6.78172e-06
-0.162984
1.10478e-05
-0.147904
1.7157e-05
-0.134214
2.54134e-05
-0.121778
3.57963e-05
-0.110485
4.77857e-05
-0.100226
6.00332e-05
-0.0909062
7.0518e-05
-0.0824428
7.68674e-05
-0.0747523
7.7148e-05
-0.0677816
7.04156e-05
-0.0614509
5.7018e-05
-0.0557147
3.83496e-05
-0.0505119
1.62546e-05
-0.0457899
-7.37332e-06
-0.0415086
-3.10032e-05
-0.0376248
-5.34231e-05
-0.0341009
-7.36975e-05
-0.0309041
-9.18151e-05
-0.0280049
-0.000105877
-0.0253747
-0.000116857
-0.0229894
-0.000125262
-0.0208248
-0.000133049
-0.0188632
-0.000129227
-0.0170828
-0.000132373
-0.0154697
-0.000119705
-0.0140062
-0.000113241
-0.0126796
-0.000104288
-0.0114777
-9.24953e-05
-0.0103894
-7.27965e-05
-0.00940337
-8.03542e-05
-0.00851174
-3.2959e-05
-0.00770536
-1.91286e-05
-0.47381
-1.42995e-06
-0.42988
-1.03636e-06
-0.390247
-1.02353e-06
-0.354166
-7.80341e-07
-0.321441
-6.36679e-07
-0.291724
-3.81673e-07
-0.264756
1.46065e-08
-0.240282
6.6298e-07
-0.218062
1.69466e-06
-0.1979
3.32861e-06
-0.179599
5.85348e-06
-0.162987
9.65709e-06
-0.147908
1.52107e-05
-0.13422
2.28813e-05
-0.121786
3.28159e-05
-0.110494
4.47524e-05
-0.100235
5.76375e-05
-0.0909159
6.96854e-05
-0.0824508
7.85326e-05
-0.0747573
8.19147e-05
-0.0677827
7.84127e-05
-0.0614481
6.78122e-05
-0.0557086
5.10305e-05
-0.0505036
2.99278e-05
-0.0457803
6.55445e-06
-0.0414987
-1.74147e-05
-0.0376153
-4.06826e-05
-0.0340922
-6.22461e-05
-0.0308966
-8.13325e-05
-0.0279986
-9.81492e-05
-0.02537
-0.000110513
-0.0229862
-0.00011999
-0.0208232
-0.000126939
-0.0188622
-0.000134143
-0.0170841
-0.000127894
-0.015471
-0.000130869
-0.0140093
-0.000116689
-0.0126832
-0.000109679
-0.0114816
-0.000100386
-0.0103932
-8.84315e-05
-0.00940745
-6.86321e-05
-0.00851419
-7.74569e-05
-0.00770784
-3.03763e-05
-0.00697693
-2.0051e-05
-0.47381
-1.35071e-06
-0.429881
-9.74915e-07
-0.390247
-9.67741e-07
-0.354166
-7.38225e-07
-0.321441
-6.11776e-07
-0.291724
-3.86529e-07
-0.264757
-4.4772e-08
-0.240282
5.10395e-07
-0.218063
1.40391e-06
-0.197901
2.81799e-06
-0.179601
5.03325e-06
-0.162989
8.4068e-06
-0.147912
1.34227e-05
-0.134225
2.04757e-05
-0.121793
2.98739e-05
-0.110502
4.15387e-05
-0.100245
5.47388e-05
-0.0909262
6.79605e-05
-0.0824601
7.8965e-05
-0.074764
8.53282e-05
-0.0677858
8.51157e-05
-0.0614473
7.75647e-05
-0.055704
6.32072e-05
-0.0504962
4.36622e-05
-0.0457712
2.09598e-05
-0.0414889
-3.04784e-06
-0.0376057
-2.68845e-05
-0.0340833
-4.94887e-05
-0.0308888
-7.00254e-05
-0.0279922
-8.76532e-05
-0.0253648
-0.000103399
-0.0229828
-0.000114105
-0.0208213
-0.000122051
-0.0188618
-0.000127532
-0.0170842
-0.000134002
-0.0154734
-0.00012574
-0.0140116
-0.000128415
-0.0126871
-0.000112684
-0.0114858
-0.000105405
-0.0103976
-9.61476e-05
-0.00941162
-8.40461e-05
-0.00851852
-6.45425e-05
-0.00771053
-7.38933e-05
-0.00697954
-2.75307e-05
-0.00631865
-1.83904e-05
-0.47381
-1.27569e-06
-0.429881
-9.16631e-07
-0.390247
-9.15146e-07
-0.354167
-6.98631e-07
-0.321442
-5.86933e-07
-0.291724
-3.87823e-07
-0.264757
-9.27272e-08
-0.240283
3.82802e-07
-0.218064
1.15741e-06
-0.197902
2.37708e-06
-0.179602
4.31632e-06
-0.162992
7.29458e-06
-0.147916
1.17982e-05
-0.13423
1.82324e-05
-0.121799
2.70142e-05
-0.110511
3.82565e-05
-0.100255
5.14827e-05
-0.090937
6.55081e-05
-0.0824704
7.82896e-05
-0.0747724
8.73651e-05
-0.067791
9.04691e-05
-0.0614483
8.62707e-05
-0.0557011
7.4766e-05
-0.05049
5.71466e-05
-0.0457629
3.53305e-05
-0.0414796
1.14898e-05
-0.0375963
-1.26453e-05
-0.0340744
-3.59431e-05
-0.0308809
-5.75723e-05
-0.0279855
-7.68505e-05
-0.0253596
-9.29564e-05
-0.0229788
-0.000107392
-0.020819
-0.000116247
-0.0188611
-0.000122744
-0.0170849
-0.000126811
-0.0154746
-0.000132967
-0.014015
-0.000122364
-0.0126903
-0.000125125
-0.0114904
-0.00010821
-0.0104023
-0.000100644
-0.00941642
-9.13108e-05
-0.008523
-7.92829e-05
-0.00771504
-5.99609e-05
-0.00698242
-7.04266e-05
-0.00632136
-2.4733e-05
-0.00572295
-1.87407e-05
-0.473809
-1.20475e-06
-0.429881
-8.61987e-07
-0.390247
-8.65189e-07
-0.354167
-6.61445e-07
-0.321442
-5.62187e-07
-0.291725
-3.85129e-07
-0.264757
-1.30454e-07
-0.240283
2.76179e-07
-0.218064
9.49457e-07
-0.197903
1.99778e-06
-0.179604
3.68938e-06
-0.162994
6.31098e-06
-0.147919
1.03321e-05
-0.134234
1.61631e-05
-0.121805
2.42977e-05
-0.110519
3.49796e-05
-0.100265
4.80115e-05
-0.090948
6.24786e-05
-0.0824816
7.66433e-05
-0.0747823
8.81126e-05
-0.0677979
9.43947e-05
-0.0614514
9.36535e-05
-0.0557
8.52728e-05
-0.0504853
7.00191e-05
-0.0457555
4.96658e-05
-0.0414707
2.64484e-05
-0.0375869
2.26108e-06
-0.0340654
-2.15069e-05
-0.0308728
-4.3969e-05
-0.0279786
-6.4462e-05
-0.0253541
-8.24566e-05
-0.0229749
-9.67996e-05
-0.0208162
-0.00011023
-0.0188601
-0.000117358
-0.0170854
-0.000122436
-0.0154765
-0.000125129
-0.0140171
-0.000130789
-0.0126945
-0.000118373
-0.0114943
-0.000121074
-0.0104075
-0.000102945
-0.00942164
-9.53445e-05
-0.00852814
-8.6308e-05
-0.00771976
-7.4294e-05
-0.00698706
-5.5555e-05
-0.0063244
-6.64195e-05
-0.00572573
-2.17647e-05
-0.005184
-1.6785e-05
-0.473809
-1.13649e-06
-0.429882
-8.10568e-07
-0.390247
-8.17735e-07
-0.354167
-6.2601e-07
-0.321442
-5.38238e-07
-0.291725
-3.80126e-07
-0.264758
-1.60022e-07
-0.240283
1.86918e-07
-0.218065
7.71911e-07
-0.197903
1.67473e-06
-0.179605
3.1475e-06
-0.162995
5.44647e-06
-0.147921
9.02356e-06
-0.134238
1.42748e-05
-0.121811
2.17476e-05
-0.110526
3.17901e-05
-0.100275
4.44192e-05
-0.0909591
5.90389e-05
-0.0824933
7.41788e-05
-0.0747933
8.76594e-05
-0.0678067
9.68846e-05
-0.0614566
9.96333e-05
-0.055701
9.47261e-05
-0.0504821
8.23317e-05
-0.0457492
6.38828e-05
-0.0414624
4.1524e-05
-0.0375778
1.73476e-05
-0.0340565
-6.81504e-06
-0.0308646
-2.98541e-05
-0.0279714
-5.12134e-05
-0.0253483
-7.03762e-05
-0.0229705
-8.69454e-05
-0.0208136
-9.95757e-05
-0.0188585
-0.000111859
-0.0170856
-0.000117093
-0.015478
-0.000120893
-0.01402
-0.000122295
-0.0126975
-0.000127915
-0.0114994
-0.000113367
-0.0104121
-0.00011637
-0.00942738
-9.74244e-05
-0.00853374
-8.97571e-05
-0.00772517
-8.08584e-05
-0.00699196
-6.91015e-05
-0.00632912
-5.07656e-05
-0.00572887
-6.25363e-05
-0.00518683
-1.88671e-05
-0.00469635
-1.6669e-05
-0.473809
-1.07274e-06
-0.429882
-7.61642e-07
-0.390247
-7.72935e-07
-0.354167
-5.92473e-07
-0.321442
-5.14385e-07
-0.291725
-3.72883e-07
-0.264758
-1.8212e-07
-0.240284
1.13533e-07
-0.218065
6.21316e-07
-0.197904
1.39541e-06
-0.179606
2.68038e-06
-0.162997
4.69188e-06
-0.147924
7.85811e-06
-0.134242
1.25698e-05
-0.121816
1.93863e-05
-0.110533
2.87396e-05
-0.100284
4.08261e-05
-0.09097
5.53069e-05
-0.0825054
7.10728e-05
-0.0748053
8.6144e-05
-0.0678171
9.80072e-05
-0.0614638
0.000104139
-0.0557041
0.000102815
-0.050481
9.36158e-05
-0.0457444
7.74978e-05
-0.041455
5.64437e-05
-0.0375692
3.27425e-05
-0.0340475
8.48122e-06
-0.0308562
-1.50444e-05
-0.0279641
-3.70397e-05
-0.0253422
-5.71719e-05
-0.0229659
-7.49593e-05
-0.0208104
-9.02154e-05
-0.0188571
-0.000100886
-0.0170851
-0.000112386
-0.0154793
-0.000115931
-0.0140226
-0.000118504
-0.0127013
-0.000118695
-0.0115031
-0.000124049
-0.0104178
-0.000107992
-0.00943245
-0.000111114
-0.00853987
-9.13136e-05
-0.00773105
-8.38002e-05
-0.00699756
-7.53985e-05
-0.00633413
-6.37681e-05
-0.00573363
-4.6236e-05
-0.00519005
-5.82272e-05
-0.00469922
-1.58691e-05
-0.00425518
-1.44356e-05
-0.473809
-1.0111e-06
-0.429883
-7.16353e-07
-0.390247
-7.29773e-07
-0.354168
-5.60817e-07
-0.321442
-4.91282e-07
-0.291725
-3.64063e-07
-0.264758
-1.98438e-07
-0.240284
5.36993e-08
-0.218065
4.9381e-07
-0.197904
1.15745e-06
-0.179607
2.27446e-06
-0.162998
4.03939e-06
-0.147926
6.83231e-06
-0.134245
1.10382e-05
-0.121821
1.72238e-05
-0.11054
2.58624e-05
-0.100292
3.73027e-05
-0.0909806
5.14328e-05
-0.0825175
6.74562e-05
-0.0748179
8.3731e-05
-0.0678288
9.78295e-05
-0.061473
0.000107146
-0.0557094
0.000109484
-0.0504819
0.000103831
-0.0457412
9.05819e-05
-0.0414488
7.13435e-05
-0.037561
4.84384e-05
-0.0340388
2.41191e-05
-0.0308478
8.52788e-09
-0.0279566
-2.26698e-05
-0.025336
-4.3417e-05
-0.022961
-6.21822e-05
-0.020807
-7.84892e-05
-0.0188551
-9.23578e-05
-0.017085
-0.000101226
-0.0154799
-0.000111856
-0.0140249
-0.000113558
-0.0127048
-0.000115091
-0.0115077
-0.000114165
-0.0104222
-0.000119717
-0.00943872
-0.000101826
-0.00854537
-0.000105399
-0.00773747
-8.51438e-05
-0.00700364
-7.77386e-05
-0.00633984
-6.96328e-05
-0.00573871
-5.83882e-05
-0.0051948
-4.14241e-05
-0.00470248
-5.40495e-05
-0.00425805
-1.29623e-05
-0.00385595
-1.39013e-05
-0.473809
-9.53347e-07
-0.429883
-6.73581e-07
-0.390247
-6.89838e-07
-0.354168
-5.30501e-07
-0.321442
-4.6878e-07
-0.291725
-3.53813e-07
-0.264758