/*--------------------------------*- C++ -*----------------------------------*\
  =========                 |
  \\      /  F ield         | OpenFOAM: The Open Source CFD Toolbox
   \\    /   O peration     | Website:  https://openfoam.org
    \\  /    A nd           | Version:  dev
     \\/     M anipulation  |
\*---------------------------------------------------------------------------*/
FoamFile
{
    version     2.0;
    format      ascii;
    class       volVectorField;
    location    "25";
    object      U;
}
// * * * * * * * * * * * * * * * * * * * * * * * * * * * * * * * * * * * * * //

dimensions      [0 1 -1 0 0 0 0];

internalField   nonuniform List<vector> 
29380
(
(51.104 -0.0109546 0)
(51.1046 -0.0113456 0)
(51.0945 -0.00180459 0)
(51.1048 -0.0113465 0)
(51.0951 -0.00228934 0)
(51.1122 -0.00926993 0)
(51.1051 -0.01126 0)
(51.095 -0.00225934 0)
(51.1125 -0.00970033 0)
(51.114 -0.00274733 0)
(51.1055 -0.0111012 0)
(51.0953 -0.00215949 0)
(51.1125 -0.00949765 0)
(51.1146 -0.00321397 0)
(51.1213 -0.00691661 0)
(51.1058 -0.0109041 0)
(51.0954 -0.00202676 0)
(51.1127 -0.00925947 0)
(51.1145 -0.00302864 0)
(51.1215 -0.0073427 0)
(51.1244 -0.0032483 0)
(51.1061 -0.0106774 0)
(51.0956 -0.00187096 0)
(51.113 -0.00897385 0)
(51.1148 -0.00283294 0)
(51.1213 -0.00700327 0)
(51.1247 -0.00368465 0)
(51.1286 -0.00543574 0)
(51.1064 -0.0104352 0)
(51.0958 -0.00170349 0)
(51.1132 -0.00866297 0)
(51.115 -0.00260878 0)
(51.1215 -0.00667332 0)
(51.1244 -0.00332434 0)
(51.1285 -0.00578847 0)
(51.1316 -0.00376266 0)
(51.1067 -0.0101883 0)
(51.0959 -0.00154041 0)
(51.1135 -0.00833627 0)
(51.1153 -0.00236174 0)
(51.1217 -0.00629963 0)
(51.1246 -0.00302081 0)
(51.1282 -0.00525356 0)
(51.1314 -0.00401519 0)
(51.1345 -0.00442889 0)
(51.107 -0.00994168 0)
(51.0961 -0.00138678 0)
(51.1138 -0.00801223 0)
(51.1156 -0.00210852 0)
(51.1219 -0.00589062 0)
(51.1247 -0.00268144 0)
(51.1282 -0.00483839 0)
(51.1309 -0.00342008 0)
(51.1341 -0.00455395 0)
(51.137 -0.00373232 0)
(51.1072 -0.00970243 0)
(51.0962 -0.00125116 0)
(51.1141 -0.00769815 0)
(51.116 -0.00186247 0)
(51.1222 -0.00545935 0)
(51.1249 -0.00230323 0)
(51.1282 -0.00438472 0)
(51.1309 -0.00302146 0)
(51.1336 -0.00385143 0)
(51.1365 -0.0036829 0)
(51.1392 -0.00340262 0)
(51.1074 -0.00947225 0)
(51.0964 -0.00113382 0)
(51.1144 -0.00740263 0)
(51.1163 -0.00163486 0)
(51.1225 -0.00502498 0)
(51.1251 -0.00189461 0)
(51.1283 -0.00388139 0)
(51.1308 -0.00258947 0)
(51.1335 -0.00343808 0)
(51.136 -0.00294322 0)
(51.1386 -0.00320776 0)
(51.141 -0.00281207 0)
(51.1076 -0.00925551 0)
(51.0965 -0.00103927 0)
(51.1147 -0.00712873 0)
(51.1167 -0.00143131 0)
(51.1229 -0.0046002 0)
(51.1254 -0.00147206 0)
(51.1285 -0.00332944 0)
(51.1308 -0.00210065 0)
(51.1333 -0.00298782 0)
(51.1358 -0.00258612 0)
(51.1382 -0.0024762 0)
(51.1405 -0.00246289 0)
(51.1422 -0.00196685 0)
(51.1078 -0.0090529 0)
(51.0966 -0.000964739 0)
(51.115 -0.00688012 0)
(51.1171 -0.00125929 0)
(51.1233 -0.00419762 0)
(51.1258 -0.00104933 0)
(51.1287 -0.00274405 0)
(51.1308 -0.00154538 0)
(51.1331 -0.00246946 0)
(51.1355 -0.00218751 0)
(51.1379 -0.002217 0)
(51.1401 -0.0017873 0)
(51.1419 -0.0015107 0)
(51.1428 -0.000930053 0)
(51.108 -0.00886733 0)
(51.0967 -0.000911911 0)
(51.1153 -0.00665635 0)
(51.1174 -0.0011192 0)
(51.1238 -0.0038267 0)
(51.1262 -0.000642049 0)
(51.129 -0.00213992 0)
(51.1309 -0.00093008 0)
(51.133 -0.0018582 0)
(51.1351 -0.00170954 0)
(51.1374 -0.00190816 0)
(51.1397 -0.00166393 0)
(51.1416 -0.00096083 0)
(51.1427 -0.000422866 0)
(51.1424 0.00036907 0)
(51.1081 -0.00869907 0)
(51.0968 -0.00087658 0)
(51.1156 -0.00645746 0)
(51.1178 -0.00101419 0)
(51.1242 -0.00349581 0)
(51.1267 -0.000262596 0)
(51.1294 -0.00153587 0)
(51.1311 -0.000269005 0)
(51.1329 -0.00115593 0)
(51.1347 -0.00111338 0)
(51.1368 -0.00150715 0)
(51.139 -0.00147465 0)
(51.1412 -0.00102125 0)
(51.1425 -5.38947e-05 0)
(51.1427 0.00085309 0)
(51.1406 0.00189421 0)
(51.1083 -0.00855011 0)
(51.0969 -0.000859076 0)
(51.1158 -0.00628094 0)
(51.1182 -0.000940882 0)
(51.1247 -0.00320845 0)
(51.1272 7.6409e-05 0)
(51.1299 -0.000951618 0)
(51.1313 0.000417917 0)
(51.1329 -0.000370833 0)
(51.1344 -0.000389396 0)
(51.1362 -0.00095806 0)
(51.1383 -0.0011814 0)
(51.1403 -0.00100003 0)
(51.142 -0.000330143 0)
(51.1425 0.000988926 0)
(51.1414 0.00227291 0)
(51.1369 0.00358229 0)
(51.1084 -0.00842042 0)
(51.0969 -0.000855071 0)
(51.1161 -0.00612512 0)
(51.1185 -0.000898807 0)
(51.1251 -0.00296787 0)
(51.1278 0.000367138 0)
(51.1304 -0.000404231 0)
(51.1317 0.00110708 0)
(51.133 0.000475969 0)
(51.1342 0.000459179 0)
(51.1357 -0.000242395 0)
(51.1374 -0.000712756 0)
(51.1393 -0.000864729 0)
(51.1409 -0.000501008 0)
(51.1419 0.000475014 0)
(51.1412 0.00213701 0)
(51.1382 0.00376924 0)
(51.1306 0.00541434 0)
(51.1085 -0.00831133 0)
(51.097 -0.000864237 0)
(51.1163 -0.00598699 0)
(51.1189 -0.000882863 0)
(51.1256 -0.00277211 0)
(51.1283 0.000603119 0)
(51.1309 9.05413e-05 0)
(51.1322 0.00177456 0)
(51.1333 0.00135766 0)
(51.1341 0.00141379 0)
(51.1352 0.000646084 0)
(51.1365 -3.95829e-05 0)
(51.1381 -0.000530602 0)
(51.1396 -0.000549075 0)
(51.1406 8.78869e-05 0)
(51.1404 0.0013716 0)
(51.138 0.00333467 0)
(51.1324 0.00534476 0)
(51.121 0.00725574 0)
(51.1086 -0.00822252 0)
(51.0971 -0.00088282 0)
(51.1165 -0.00586459 0)
(51.1192 -0.000890852 0)
(51.126 -0.00262022 0)
(51.1289 0.000782651 0)
(51.1316 0.000521505 0)
(51.1328 0.00239725 0)
(51.1337 0.00224365 0)
(51.1341 0.00244823 0)
(51.1348 0.00169684 0)
(51.1356 0.000854352 0)
(51.1369 4.06566e-05 0)
(51.1381 -0.000379323 0)
(51.139 -0.000170402 0)
(51.1388 0.000756302 0)
(51.137 0.00232019 0)
(51.1321 0.00460489 0)
(51.1234 0.00687299 0)
(51.1071 0.00905789 0)
(51.1086 -0.00815462 0)
(51.0971 -0.000910477 0)
(51.1167 -0.00575539 0)
(51.1195 -0.000917472 0)
(51.1264 -0.0025069 0)
(51.1295 0.000905461 0)
(51.1322 0.000881067 0)
(51.1335 0.00295565 0)
(51.1342 0.00310426 0)
(51.1343 0.00352773 0)
(51.1345 0.00288248 0)
(51.1348 0.00196517 0)
(51.1356 0.000877629 0)
(51.1364 5.51356e-05 0)
(51.1371 -0.000198848 0)
(51.1369 0.000272016 0)
(51.1351 0.0014748 0)
(51.1309 0.00335605 0)
(51.1229 0.00582685 0)
(51.11 0.00834444 0)
(51.0881 0.0106905 0)
(51.1087 -0.00810697 0)
(51.0972 -0.00094416 0)
(51.1168 -0.00565789 0)
(51.1197 -0.000960242 0)
(51.1268 -0.0024285 0)
(51.1301 0.000974843 0)
(51.1329 0.00116592 0)
(51.1342 0.00343455 0)
(51.1348 0.00390956 0)
(51.1347 0.00461464 0)
(51.1345 0.00417066 0)
(51.1342 0.00327551 0)
(51.1344 0.00198907 0)
(51.1347 0.000793772 0)
(51.135 5.57768e-05 0)
(51.1346 2.13197e-05 0)
(51.1328 0.000760461 0)
(51.1287 0.00229339 0)
(51.1213 0.00436819 0)
(51.1092 0.00701187 0)
(51.0914 0.00965423 0)
(51.0628 0.0120654 0)
(51.1088 -0.00807945 0)
(51.0973 -0.000983657 0)
(51.117 -0.00557031 0)
(51.12 -0.00101463 0)
(51.1272 -0.00237871 0)
(51.1306 0.00099508 0)
(51.1336 0.0013765 0)
(51.135 0.00382327 0)
(51.1356 0.00463518 0)
(51.1353 0.0056714 0)
(51.1346 0.00551706 0)
(51.1338 0.00474995 0)
(51.1333 0.00336455 0)
(51.133 0.00185866 0)
(51.1328 0.000644268 0)
(51.1321 6.33114e-05 0)
(51.1301 0.000277064 0)
(51.126 0.00135713 0)
(51.1188 0.00310525 0)
(51.1074 0.0053823 0)
(51.0902 0.00805624 0)
(51.0664 0.0107463 0)
(51.0304 0.0130755 0)
(51.1088 -0.00807109 0)
(51.0973 -0.00102653 0)
(51.1171 -0.00549178 0)
(51.1202 -0.00107854 0)
(51.1276 -0.00235326 0)
(51.1311 0.000972118 0)
(51.1342 0.00151627 0)
(51.1358 0.00411712 0)
(51.1364 0.00526101 0)
(51.1361 0.00666121 0)
(51.135 0.00687604 0)
(51.1337 0.00634791 0)
(51.1325 0.00498119 0)
(51.1315 0.0032535 0)
(51.1306 0.00160291 0)
(51.1293 0.000457351 0)
(51.127 8.67916e-05 0)
(51.1228 0.000639308 0)
(51.1156 0.00196153 0)
(51.1044 0.00395537 0)
(51.088 0.00630187 0)
(51.0649 0.00891054 0)
(51.0342 0.0115373 0)
(50.99 0.013649 0)
(51.1088 -0.00808128 0)
(51.0974 -0.00107277 0)
(51.1173 -0.00542105 0)
(51.1205 -0.00114844 0)
(51.1279 -0.00234625 0)
(51.1316 0.000912178 0)
(51.1349 0.001591 0)
(51.1367 0.00431549 0)
(51.1374 0.0057735 0)
(51.1369 0.00755297 0)
(51.1356 0.00820071 0)
(51.1338 0.00801561 0)
(51.1319 0.00679651 0)
(51.1301 0.0049626 0)
(51.1284 0.00294852 0)
(51.1265 0.00125612 0)
(51.1237 0.000257101 0)
(51.1192 0.000204649 0)
(51.1119 0.00101811 0)
(51.1008 0.00263732 0)
(51.0846 0.0047498 0)
(51.0624 0.00708069 0)
(51.0323 0.00949118 0)
(50.994 0.0119688 0)
(50.9411 0.0137179 0)
(51.1088 -0.00810869 0)
(51.0975 -0.00112056 0)
(51.1174 -0.00535781 0)
(51.1207 -0.00122264 0)
(51.1282 -0.00235395 0)
(51.1321 0.000821885 0)
(51.1355 0.00160785 0)
(51.1375 0.00442242 0)
(51.1383 0.00616601 0)
(51.138 0.00832158 0)
(51.1365 0.00944491 0)
(51.1342 0.00969829 0)
(51.1316 0.00876239 0)
(51.1289 0.00695808 0)
(51.1264 0.00468152 0)
(51.1236 0.002491 0)
(51.1202 0.000856425 0)
(51.1152 0.000123331 0)
(51.1077 0.000338496 0)
(51.0965 0.00149509 0)
(51.0805 0.00329399 0)
(51.0585 0.00545206 0)
(51.0294 0.00764267 0)
(50.9917 0.00973401 0)
(50.945 0.011977 0)
(50.8832 0.0132618 0)
(51.1089 -0.00815255 0)
(51.0975 -0.0011699 0)
(51.1175 -0.00530133 0)
(51.1208 -0.00129866 0)
(51.1285 -0.00237145 0)
(51.1326 0.000707549 0)
(51.1361 0.00157488 0)
(51.1383 0.00444472 0)
(51.1394 0.00643682 0)
(51.1391 0.00894947 0)
(51.1375 0.0105704 0)
(51.1349 0.0113395 0)
(51.1316 0.0108165 0)
(51.1281 0.00919119 0)
(51.1246 0.00678348 0)
(51.1209 0.00417631 0)
(51.1167 0.00193066 0)
(51.111 0.000481744 0)
(51.1031 -6.72503e-06 0)
(51.0916 0.00058995 0)
(51.0756 0.00198687 0)
(51.0538 0.00390613 0)
(51.0251 0.00599155 0)
(50.9884 0.00791572 0)
(50.9424 0.00956772 0)
(50.887 0.0115348 0)
(50.816 0.0122803 0)
(51.1089 -0.00821158 0)
(51.0976 -0.00121964 0)
(51.1175 -0.00525141 0)
(51.121 -0.00137532 0)
(51.1287 -0.00239618 0)
(51.133 0.000575367 0)
(51.1367 0.00150029 0)
(51.1391 0.00439191 0)
(51.1404 0.00659072 0)
(51.1403 0.00942734 0)
(51.1387 0.0115444 0)
(51.1359 0.0128844 0)
(51.1321 0.0128915 0)
(51.1277 0.0116029 0)
(51.1231 0.00922213 0)
(51.1184 0.00631225 0)
(51.1131 0.00350806 0)
(51.1067 0.00133927 0)
(51.0981 8.75287e-05 0)
(51.0863 -1.45094e-05 0)
(51.0701 0.000883069 0)
(51.0483 0.00248114 0)
(51.0199 0.00441038 0)
(50.9837 0.00629603 0)
(50.9388 0.00782723 0)
(50.8841 0.00895371 0)
(50.8197 0.0106221 0)
(50.7398 0.0108114 0)
(51.1089 -0.00828503 0)
(51.0977 -0.00126998 0)
(51.1176 -0.00520787 0)
(51.1211 -0.00145074 0)
(51.1289 -0.0024245 0)
(51.1333 0.000430606 0)
(51.1372 0.00139245 0)
(51.1399 0.00427453 0)
(51.1414 0.00663521 0)
(51.1415 0.00975244 0)
(51.1401 0.0123447 0)
(51.1371 0.0142857 0)
(51.1328 0.0149203 0)
(51.1277 0.0141222 0)
(51.1221 0.011944 0)
(51.1161 0.00887944 0)
(51.1098 0.00560454 0)
(51.1023 0.00273772 0)
(51.093 0.000694241 0)
(51.0806 -0.000192808 0)
(51.0641 3.44882e-05 0)
(51.0422 0.00122342 0)
(51.0138 0.00292547 0)
(50.978 0.00473606 0)
(50.9337 0.00629189 0)
(50.8803 0.00732222 0)
(50.8167 0.00785763 0)
(50.7434 0.00925203 0)
(50.6549 0.00892503 0)
(51.1089 -0.00837182 0)
(51.0977 -0.00132031 0)
(51.1176 -0.00517068 0)
(51.1212 -0.00152444 0)
(51.1291 -0.00245462 0)
(51.1336 0.000278354 0)
(51.1377 0.00125871 0)
(51.1406 0.00410426 0)
(51.1424 0.00658223 0)
(51.1428 0.00992982 0)
(51.1415 0.0129576 0)
(51.1385 0.015504 0)
(51.134 0.016838 0)
(51.1281 0.0166702 0)
(51.1214 0.0148774 0)
(51.1143 0.0118411 0)
(51.1066 0.00822111 0)
(51.098 0.00470927 0)
(51.0877 0.00186658 0)
(51.0746 0.000139237 0)
(51.0575 -0.000411403 0)
(51.0354 0.000163583 0)
(51.007 0.00156956 0)
(50.9714 0.00325389 0)
(50.9276 0.00481155 0)
(50.875 0.00591535 0)
(50.8127 0.00635306 0)
(50.7404 0.00627828 0)
(50.6583 0.00746484 0)
(50.5619 0.00671036 0)
(51.1089 -0.00847127 0)
(51.0978 -0.00137124 0)
(51.1177 -0.00513991 0)
(51.1213 -0.00159521 0)
(51.1292 -0.00248436 0)
(51.1339 0.000122881 0)
(51.1382 0.00110643 0)
(51.1413 0.00389194 0)
(51.1434 0.00644443 0)
(51.1441 0.00996859 0)
(51.1431 0.0133798 0)
(51.1402 0.0165112 0)
(51.1354 0.018585 0)
(51.129 0.0191657 0)
(51.1214 0.0179448 0)
(51.1129 0.0151409 0)
(51.1039 0.0113383 0)
(51.094 0.00727194 0)
(51.0825 0.00365165 0)
(51.0684 0.00104663 0)
(51.0506 -0.000360516 0)
(51.0281 -0.000525986 0)
(50.9995 0.000345439 0)
(50.964 0.00186615 0)
(50.9205 0.00340154 0)
(50.8686 0.00456717 0)
(50.8073 0.00510567 0)
(50.7364 0.00489587 0)
(50.6556 0.00424092 0)
(50.5652 0.00532226 0)
(50.4615 0.0042874 0)
(51.1089 -0.00858255 0)
(51.0979 -0.00142274 0)
(51.1177 -0.00511599 0)
(51.1214 -0.0016631 0)
(51.1293 -0.00251284 0)
(51.1341 -3.23787e-05 0)
(51.1385 0.000941898 0)
(51.1419 0.00364879 0)
(51.1442 0.00623617 0)
(51.1453 0.00988363 0)
(51.1446 0.013616 0)
(51.142 0.0172902 0)
(51.1372 0.0201132 0)
(51.1303 0.0215341 0)
(51.1218 0.0210548 0)
(51.1121 0.0186977 0)
(51.1016 0.0149151 0)
(51.0902 0.0104297 0)
(51.0774 0.00608465 0)
(51.0622 0.00258909 0)
(51.0435 0.000260003 0)
(51.0203 -0.000746039 0)
(50.9914 -0.000545755 0)
(50.9559 0.000536807 0)
(50.9127 0.00205633 0)
(50.8612 0.00329714 0)
(50.8008 0.00393206 0)
(50.731 0.00382236 0)
(50.6517 0.00295576 0)
(50.5629 0.00179665 0)
(50.4648 0.0029191 0)
(50.3548 0.00177152 0)
(51.1089 -0.00870506 0)
(51.0979 -0.00147568 0)
(51.1177 -0.00509934 0)
(51.1215 -0.00172786 0)
(51.1294 -0.00253902 0)
(51.1343 -0.000184425 0)
(51.1389 0.000770568 0)
(51.1424 0.00338463 0)
(51.145 0.00597141 0)
(51.1464 0.00969015 0)
(51.1462 0.0136784 0)
(51.1439 0.0178356 0)
(51.1392 0.021386 0)
(51.132 0.0237024 0)
(51.1228 0.0241149 0)
(51.1119 0.0224243 0)
(51.0999 0.0188927 0)
(51.0869 0.0141663 0)
(51.0725 0.00918794 0)
(51.056 0.00481401 0)
(51.0363 0.00152258 0)
(51.0123 -0.000414063 0)
(50.9828 -0.00100472 0)
(50.9471 -0.000500236 0)
(50.904 0.000692736 0)
(50.853 0.00207405 0)
(50.7932 0.00286349 0)
(50.7246 0.00285038 0)
(50.6466 0.00204796 0)
(50.5593 0.000560144 0)
(50.4632 -0.000965997 0)
(50.3582 0.000354131 0)
(50.2426 -0.000709006 0)
(51.1089 -0.0088379 0)
(51.098 -0.00153032 0)
(51.1178 -0.00509065 0)
(51.1215 -0.0017902 0)
(51.1295 -0.00256315 0)
(51.1345 -0.000331281 0)
(51.1391 0.000597211 0)
(51.1428 0.00310816 0)
(51.1458 0.0056644 0)
(51.1475 0.00940722 0)
(51.1477 0.0135835 0)
(51.1458 0.0181525 0)
(51.1414 0.022381 0)
(51.1342 0.0256133 0)
(51.1244 0.027036 0)
(51.1124 0.0262162 0)
(51.0989 0.0231814 0)
(51.0841 0.0184398 0)
(51.068 0.0129714 0)
(51.05 0.00776545 0)
(51.029 0.00348406 0)
(51.0041 0.000551821 0)
(50.9739 -0.000942356 0)
(50.9377 -0.0011529 0)
(50.8946 -0.000416258 0)
(50.8439 0.000755378 0)
(50.7848 0.00183735 0)
(50.7171 0.00203327 0)
(50.6405 0.00128278 0)
(50.5548 -0.000212475 0)
(50.4602 -0.0022194 0)
(50.3574 -0.00395109 0)
(50.2463 -0.0022531 0)
(50.1262 -0.00304678 0)
(51.1089 -0.00898033 0)
(51.0981 -0.00158745 0)
(51.1178 -0.00509038 0)
(51.1216 -0.00185063 0)
(51.1296 -0.00258526 0)
(51.1346 -0.000471621 0)
(51.1393 0.000425447 0)
(51.1432 0.00282704 0)
(51.1464 0.00532712 0)
(51.1485 0.00905215 0)
(51.1491 0.0133527 0)
(51.1477 0.0182538 0)
(51.1436 0.0230904 0)
(51.1366 0.0272208 0)
(51.1264 0.0297328 0)
(51.1136 0.0299677 0)
(51.0986 0.0276842 0)
(51.0821 0.0231875 0)
(51.0641 0.0174235 0)
(51.0443 0.0114763 0)
(51.0219 0.00620227 0)
(50.9958 0.00221174 0)
(50.9648 -0.000267541 0)
(50.928 -0.00132149 0)
(50.8846 -0.00119416 0)
(50.8341 -0.000341987 0)
(50.7756 0.00064282 0)
(50.7088 0.0012746 0)
(50.6333 0.000746589 0)
(50.5493 -0.000789376 0)
(50.4565 -0.00290899 0)
(50.3553 -0.00530182 0)
(50.2467 -0.00703267 0)
(50.1303 -0.0047944 0)
(50.0066 -0.0051385 0)
(51.1089 -0.0091314 0)
(51.0982 -0.00164722 0)
(51.1178 -0.00509906 0)
(51.1217 -0.0019101 0)
(51.1296 -0.00260645 0)
(51.1347 -0.000604885 0)
(51.1395 0.00025785 0)
(51.1435 0.00254713 0)
(51.1469 0.00497178 0)
(51.1493 0.00864298 0)
(51.1504 0.0130083 0)
(51.1495 0.01816 0)
(51.1459 0.0235176 0)
(51.1392 0.0284977 0)
(51.129 0.0321354 0)
(51.1154 0.0335733 0)
(51.0991 0.0322832 0)
(51.0808 0.0283144 0)
(51.0608 0.0225012 0)
(51.0391 0.0159606 0)
(51.015 0.00973567 0)
(50.9875 0.00463753 0)
(50.9555 0.00107761 0)
(50.9181 -0.00090942 0)
(50.8743 -0.00153245 0)
(50.8237 -0.00116789 0)
(50.7656 -0.000351168 0)
(50.6997 0.000283915 0)
(50.6255 0.000305588 0)
(50.5428 -0.00103762 0)
(50.4519 -0.00334017 0)
(50.3527 -0.00597899 0)
(50.2456 -0.00856644 0)
(50.1321 -0.010094 0)
(50.0113 -0.00715922 0)
(49.8849 -0.00691084 0)
(51.1088 -0.00929046 0)
(51.0983 -0.00170993 0)
(51.1178 -0.00511699 0)
(51.1218 -0.00196929 0)
(51.1297 -0.00262727 0)
(51.1348 -0.000731108 0)
(51.1397 9.61161e-05 0)
(51.1438 0.00227256 0)
(51.1474 0.00460733 0)
(51.1501 0.00819563 0)
(51.1516 0.0125729 0)
(51.1512 0.0178956 0)
(51.1482 0.0236791 0)
(51.1419 0.0294315 0)
(51.1318 0.0341882 0)
(51.1178 0.0369325 0)
(51.1004 0.036859 0)
(51.0804 0.0337158 0)
(51.0584 0.028143 0)
(51.0345 0.0212124 0)
(51.0085 0.0141251 0)
(50.9794 0.00790798 0)
(50.9462 0.00317223 0)
(50.9079 0.000131269 0)
(50.8636 -0.00132868 0)
(50.8128 -0.00159688 0)
(50.7549 -0.00113388 0)
(50.6897 -0.000512341 0)
(50.6168 -0.000417472 0)
(50.5357 -0.00112826 0)
(50.4465 -0.00332115 0)
(50.3494 -0.00633123 0)
(50.2445 -0.00931391 0)
(50.1323 -0.0118981 0)
(50.0147 -0.0130088 0)
(49.8904 -0.00925908 0)
(49.7622 -0.00830694 0)
(51.1088 -0.00945709 0)
(51.0983 -0.00177529 0)
(51.1179 -0.00514419 0)
(51.1218 -0.00202912 0)
(51.1298 -0.00264896 0)
(51.1349 -0.000850568 0)
(51.1398 -5.89862e-05 0)
(51.144 0.00200615 0)
(51.1477 0.00424147 0)
(51.1507 0.00772465 0)
(51.1526 0.0120688 0)
(51.1528 0.0174872 0)
(51.1504 0.0235985 0)
(51.1447 0.0300268 0)
(51.1349 0.0358544 0)
(51.1207 0.039961 0)
(51.1025 0.0412896 0)
(51.0809 0.0392618 0)
(51.0568 0.0342501 0)
(51.0307 0.0271978 0)
(51.0025 0.0193944 0)
(50.9716 0.0120881 0)
(50.937 0.00611678 0)
(50.8977 0.00188592 0)
(50.8528 -0.000552038 0)
(50.8017 -0.00152573 0)
(50.7439 -0.00156053 0)
(50.6792 -0.00115747 0)
(50.6072 -0.000928516 0)
(50.5278 -0.00153286 0)
(50.4405 -0.00305974 0)
(50.3453 -0.00609333 0)
(50.2428 -0.00967142 0)
(50.133 -0.0128064 0)
(50.0165 -0.0151632 0)
(49.8957 -0.0156718 0)
(49.7686 -0.0110186 0)
(49.6396 -0.00929865 0)
(51.1088 -0.00963124 0)
(51.0984 -0.00184318 0)
(51.1179 -0.00518049 0)
(51.1219 -0.00208996 0)
(51.1299 -0.00267218 0)
(51.135 -0.000963859 0)
(51.14 -0.000206974 0)
(51.1442 0.00174942 0)
(51.1481 0.00387921 0)
(51.1513 0.00724066 0)
(51.1535 0.0115157 0)
(51.1542 0.0169628 0)
(51.1525 0.0233055 0)
(51.1475 0.030301 0)
(51.1382 0.0371181 0)
(51.1241 0.0425889 0)
(51.1053 0.045459 0)
(51.0823 0.0448184 0)
(51.0562 0.0407124 0)
(51.0278 0.0338598 0)
(50.9973 0.0255535 0)
(50.9643 0.0172314 0)
(50.9281 0.00999383 0)
(50.8876 0.00447086 0)
(50.8419 0.000881811 0)
(50.7903 -0.000949492 0)
(50.7325 -0.00152771 0)
(50.6682 -0.001476 0)
(50.5971 -0.00134047 0)
(50.519 -0.00168321 0)
(50.4338 -0.00312446 0)
(50.3409 -0.00550538 0)
(50.2405 -0.00928838 0)
(50.1332 -0.0132686 0)
(50.0193 -0.0163204 0)
(49.8993 -0.018243 0)
(49.7761 -0.0179864 0)
(49.647 -0.0123881 0)
(49.5179 -0.00987246 0)
(51.1088 -0.0098122 0)
(51.0984 -0.00191328 0)
(51.1179 -0.00522545 0)
(51.122 -0.0021523 0)
(51.1299 -0.00269774 0)
(51.1351 -0.00107164 0)
(51.1401 -0.000347997 0)
(51.1444 0.00150335 0)
(51.1484 0.00352465 0)
(51.1518 0.00675302 0)
(51.1543 0.0109295 0)
(51.1555 0.0163482 0)
(51.1544 0.0228339 0)
(51.1502 0.0302809 0)
(51.1416 0.0379801 0)
(51.1278 0.0447719 0)
(51.1087 0.0492648 0)
(51.0846 0.0502478 0)
(51.0567 0.0473901 0)
(51.0259 0.0411024 0)
(50.9929 0.0325815 0)
(50.9576 0.0233846 0)
(50.9194 0.0148827 0)
(50.8775 0.00798167 0)
(50.8309 0.00310649 0)
(50.7789 0.000212315 0)
(50.7209 -0.00106375 0)
(50.6569 -0.0013704 0)
(50.5865 -0.00144334 0)
(50.5097 -0.00177733 0)
(50.4262 -0.00286059 0)
(50.3358 -0.00523482 0)
(50.238 -0.00843295 0)
(50.1331 -0.0128357 0)
(50.0219 -0.0169894 0)
(49.9045 -0.0197298 0)
(49.7817 -0.0210235 0)
(49.6568 -0.0198826 0)
(49.5266 -0.0133332 0)
(49.3981 -0.0100426 0)
(51.1088 -0.0099991 0)
(51.0985 -0.00198546 0)
(51.1179 -0.00527872 0)
(51.122 -0.00221608 0)
(51.1299 -0.00272591 0)
(51.1352 -0.00117436 0)
(51.1403 -0.000482274 0)
(51.1447 0.00126801 0)
(51.1486 0.00318028 0)
(51.1523 0.00626791 0)
(51.155 0.0103239 0)
(51.1566 0.015666 0)
(51.1561 0.0222167 0)
(51.1527 0.0300028 0)
(51.1449 0.038458 0)
(51.1317 0.0464854 0)
(51.1126 0.0526258 0)
(51.0878 0.0554134 0)
(51.0582 0.0541322 0)
(51.0251 0.0488071 0)
(50.9894 0.0404303 0)
(50.9516 0.03058 0)
(50.9113 0.0208676 0)
(50.8677 0.0125174 0)
(50.82 0.00622013 0)
(50.7673 0.00210846 0)
(50.7092 -9.83584e-05 0)
(50.6454 -0.000911414 0)
(50.5756 -0.00114664 0)
(50.4999 -0.00155625 0)
(50.4181 -0.0025662 0)
(50.3299 -0.00453221 0)
(50.235 -0.00786832 0)
(50.1331 -0.0117973 0)
(50.0244 -0.0166151 0)
(49.9097 -0.0207075 0)
(49.7896 -0.0229055 0)
(49.6647 -0.023413 0)
(49.5388 -0.0213075 0)
(49.4081 -0.0138483 0)
(49.281 -0.00983131 0)
(51.1088 -0.0101923 0)
(51.0986 -0.00205933 0)
(51.1179 -0.00534029 0)
(51.122 -0.00228161 0)
(51.13 -0.0027571 0)
(51.1352 -0.0012725 0)
(51.1404 -0.000609938 0)
(51.1448 0.00104344 0)
(51.1489 0.00284787 0)
(51.1527 0.00579107 0)
(51.1557 0.0097095 0)
(51.1576 0.0149356 0)
(51.1577 0.021484 0)
(51.155 0.0295035 0)
(51.1481 0.038582 0)
(51.1356 0.0477273 0)
(51.1169 0.0554832 0)
(51.0917 0.0601965 0)
(51.0608 0.060781 0)
(51.0255 0.0568284 0)
(50.9872 0.0490105 0)
(50.9465 0.0388143 0)
(50.9037 0.0280255 0)
(50.8583 0.0181968 0)
(50.8092 0.0103374 0)
(50.7558 0.00483177 0)
(50.6974 0.00153469 0)
(50.6338 -4.2104e-05 0)
(50.5646 -0.000570411 0)
(50.4899 -0.000944437 0)
(50.4095 -0.00192624 0)
(50.3235 -0.00380759 0)
(50.2312 -0.00673613 0)
(50.1325 -0.0110087 0)
(50.0271 -0.0155027 0)
(49.9152 -0.0205067 0)
(49.7979 -0.0242817 0)
(49.6756 -0.0257391 0)
(49.5492 -0.0253403 0)
(49.423 -0.0222385 0)
(49.2924 -0.0139372 0)
(49.1671 -0.00928199 0)
(51.1088 -0.0103922 0)
(51.0986 -0.00213468 0)
(51.1179 -0.00541036 0)
(51.1221 -0.00234945 0)
(51.13 -0.00279159 0)
(51.1353 -0.00136645 0)
(51.1405 -0.000731062 0)
(51.145 0.000829799 0)
(51.1492 0.00252828 0)
(51.1531 0.00532549 0)
(51.1563 0.00909505 0)
(51.1586 0.0141738 0)
(51.1592 0.0206629 0)
(51.1572 0.0288197 0)
(51.1511 0.0383898 0)
(51.1396 0.0485154 0)
(51.1214 0.0578038 0)
(51.0962 0.0644967 0)
(51.0644 0.0671839 0)
(51.0272 0.0649951 0)
(50.9861 0.0581947 0)
(50.9426 0.0480512 0)
(50.897 0.0364159 0)
(50.8493 0.0251409 0)
(50.7987 0.0156075 0)
(50.7443 0.00850374 0)
(50.6855 0.00390843 0)
(50.622 0.00142398 0)
(50.5534 0.00032252 0)
(50.4797 -0.000119356 0)
(50.4008 -0.000882863 0)
(50.3166 -0.0026727 0)
(50.2269 -0.0055676 0)
(50.1313 -0.00949359 0)
(50.0295 -0.0145918 0)
(49.9212 -0.0194413 0)
(49.8066 -0.0243665 0)
(49.6871 -0.0275903 0)
(49.5633 -0.0281373 0)
(49.436 -0.0267592 0)
(49.31 -0.022666 0)
(49.1801 -0.0136309 0)
(49.0573 -0.00843404 0)
(51.1087 -0.0105984 0)
(51.0987 -0.00221101 0)
(51.1179 -0.00548793 0)
(51.1221 -0.0024206 0)
(51.13 -0.0028303 0)
(51.1353 -0.00145704 0)
(51.1405 -0.000845785 0)
(51.1452 0.000627525 0)
(51.1494 0.00222297 0)
(51.1535 0.00487432 0)
(51.1569 0.0084869 0)
(51.1595 0.0133946 0)
(51.1605 0.0197775 0)
(51.1593 0.0279854 0)
(51.154 0.03792 0)
(51.1435 0.0488795 0)
(51.1261 0.0595804 0)
(51.1012 0.0682395 0)
(51.0687 0.0731971 0)
(51.0299 0.0731317 0)
(50.9864 0.067829 0)
(50.9398 0.0582115 0)
(50.8913 0.0460584 0)
(50.841 0.033462 0)
(50.7885 0.0221905 0)
(50.7329 0.0132994 0)
(50.6737 0.00714974 0)
(50.6101 0.00352724 0)
(50.542 0.00174389 0)
(50.4693 0.000931191 0)
(50.3919 0.000324583 0)
(50.3095 -0.00109449 0)
(50.2222 -0.0038921 0)
(50.1297 -0.00790964 0)
(50.0313 -0.0127747 0)
(49.9269 -0.0185284 0)
(49.8162 -0.0234775 0)
(49.6996 -0.0280633 0)
(49.5785 -0.0305186 0)
(49.4537 -0.0300337 0)
(49.326 -0.027643 0)
(49.2007 -0.0226084 0)
(49.072 -0.0129562 0)
(48.952 -0.00734409 0)
(51.1087 -0.0108106 0)
(51.0988 -0.00228788 0)
(51.1179 -0.0055721 0)
(51.1222 -0.00249467 0)
(51.13 -0.00287375 0)
(51.1353 -0.00154506 0)
(51.1406 -0.000954983 0)
(51.1453 0.000437006 0)
(51.1496 0.00193331 0)
(51.1538 0.00443999 0)
(51.1574 0.00789049 0)
(51.1603 0.0126093 0)
(51.1618 0.018849 0)
(51.1612 0.027033 0)
(51.1568 0.0372137 0)
(51.1473 0.0488563 0)
(51.1308 0.0608241 0)
(51.1065 0.0713803 0)
(51.0738 0.0786999 0)
(51.0338 0.0810606 0)
(50.988 0.077727 0)
(50.9384 0.0691586 0)
(50.8867 0.05693 0)
(50.8335 0.0432528 0)
(50.7787 0.0302511 0)
(50.7217 0.0194146 0)
(50.6618 0.0114519 0)
(50.5982 0.00639047 0)
(50.5306 0.00368257 0)
(50.4588 0.0024536 0)
(50.3828 0.00167524 0)
(50.3024 0.000619952 0)
(50.2173 -0.00170116 0)
(50.1276 -0.0056838 0)
(50.0328 -0.0108373 0)
(49.9322 -0.0165222 0)
(49.8258 -0.0227 0)
(49.7132 -0.0274758 0)
(49.5949 -0.0314676 0)
(49.4727 -0.0329795 0)
(49.3472 -0.0313792 0)
(49.2197 -0.0279895 0)
(49.0956 -0.0220881 0)
(48.9685 -0.0119655 0)
(48.8518 -0.00606028 0)
(51.1087 -0.0110291 0)
(51.0988 -0.00236456 0)
(51.1179 -0.00566203 0)
(51.1222 -0.00257134 0)
(51.1301 -0.00292188 0)
(51.1353 -0.00163108 0)
(51.1406 -0.00105985 0)
(51.1453 0.000257107 0)
(51.1497 0.00166129 0)
(51.1541 0.00402586 0)
(51.1579 0.00731099 0)
(51.161 0.0118276 0)
(51.163 0.0178944 0)
(51.163 0.0259915 0)
(51.1594 0.0363099 0)
(51.1509 0.0484881 0)
(51.1355 0.0615588 0)
(51.112 0.0738983 0)
(51.0795 0.0836 0)
(51.0387 0.0886124 0)
(50.9909 0.0876875 0)
(50.9385 0.0807309 0)
(50.8834 0.0689573 0)
(50.8269 0.054559 0)
(50.7695 0.039943 0)
(50.7108 0.0270545 0)
(50.6499 0.0170357 0)
(50.5862 0.0102204 0)
(50.5191 0.0062594 0)
(50.4482 0.00436499 0)
(50.3735 0.00345845 0)
(50.295 0.00241107 0)
(50.2124 0.000630316 0)
(50.1253 -0.00283559 0)
(50.0338 -0.00809258 0)
(49.9373 -0.0143344 0)
(49.835 -0.0206404 0)
(49.7269 -0.0269736 0)
(49.6128 -0.0312997 0)
(49.4933 -0.0344723 0)
(49.3703 -0.0348993 0)
(49.2448 -0.0321539 0)
(49.1178 -0.0278104 0)
(48.9954 -0.0211519 0)
(48.8703 -0.0107003 0)
(48.757 -0.00463862 0)
(51.1087 -0.0112539 0)
(51.0989 -0.00244044 0)
(51.1179 -0.00575682 0)
(51.1223 -0.0026502 0)
(51.1301 -0.00297452 0)
(51.1354 -0.00171596 0)
(51.1407 -0.00116119 0)
(51.1454 8.53427e-05 0)
(51.1498 0.00140621 0)
(51.1543 0.00363475 0)
(51.1583 0.00675381 0)
(51.1617 0.0110587 0)
(51.1641 0.0169292 0)
(51.1647 0.0248865 0)
(51.162 0.0352483 0)
(51.1545 0.0478204 0)
(51.1402 0.0618204 0)
(51.1177 0.0757915 0)
(51.0857 0.0878307 0)
(51.0445 0.0956423 0)
(50.9952 0.0975044 0)
(50.94 0.092717 0)
(50.8815 0.0820018 0)
(50.8216 0.0673672 0)
(50.7611 0.0513916 0)
(50.7002 0.0364392 0)
(50.6381 0.0241475 0)
(50.574 0.0152547 0)
(50.5073 0.00968308 0)
(50.4374 0.00677949 0)
(50.3641 0.00549424 0)
(50.2874 0.00462527 0)
(50.2071 0.00299661 0)
(50.1231 0.00019271 0)
(50.0346 -0.00458335 0)
(49.9418 -0.0111442 0)
(49.844 -0.0183318 0)
(49.7404 -0.0250131 0)
(49.631 -0.0312134 0)
(49.5159 -0.0348251 0)
(49.3955 -0.0369819 0)
(49.2721 -0.0362374 0)
(49.1469 -0.0323511 0)
(49.0208 -0.0271377 0)
(48.9004 -0.0198427 0)
(48.7775 -0.00921938 0)
(48.6679 -0.00312135 0)
(51.1087 -0.0114847 0)
(51.0989 -0.00251505 0)
(51.118 -0.00585563 0)
(51.1223 -0.00273073 0)
(51.1301 -0.0030316 0)
(51.1354 -0.00180032 0)
(51.1407 -0.00125967 0)
(51.1455 -7.94133e-05 0)
(51.1499 0.00116454 0)
(51.1545 0.00326647 0)
(51.1586 0.0062238 0)
(51.1623 0.010312 0)
(51.1651 0.0159676 0)
(51.1663 0.0237405 0)
(51.1644 0.0340631 0)
(51.1579 0.0469001 0)
(51.1448 0.0616537 0)
(51.1235 0.0770776 0)
(51.0923 0.0913495 0)
(51.0511 0.102027 0)
(51.0006 0.10698 0)
(50.9431 0.104889 0)
(50.8812 0.0958809 0)
(50.8176 0.0816099 0)
(50.7537 0.0646648 0)
(50.6901 0.0477681 0)
(50.6263 0.0330537 0)
(50.5617 0.0217668 0)
(50.4952 0.0141983 0)
(50.4263 0.00990197 0)
(50.3546 0.00789956 0)
(50.2797 0.00695838 0)
(50.2017 0.00581112 0)
(50.1204 0.00324522 0)
(50.0355 -0.0008112 0)
(49.9462 -0.00701538 0)
(49.8524 -0.0148086 0)
(49.7538 -0.022742 0)
(49.6492 -0.0295123 0)
(49.5389 -0.0352826 0)
(49.4229 -0.0379384 0)
(49.302 -0.0389316 0)
(49.1786 -0.0369641 0)
(49.054 -0.0319906 0)
(48.9292 -0.0260086 0)
(48.811 -0.018218 0)
(48.6908 -0.00756301 0)
(48.5849 -0.00155541 0)
(51.1086 -0.0117204 0)
(51.0989 -0.00258858 0)
(51.118 -0.00595795 0)
(51.1223 -0.00281217 0)
(51.1301 -0.00309269 0)
(51.1355 -0.00188438 0)
(51.1408 -0.00135582 0)
(51.1455 -0.000236079 0)
(51.15 0.00093317 0)
(51.1546 0.00291617 0)
(51.1588 0.00572058 0)
(51.1628 0.00959682 0)
(51.166 0.0150245 0)
(51.1677 0.0225761 0)
(51.1666 0.0327879 0)
(51.1612 0.0457717 0)
(51.1493 0.0611103 0)
(51.1293 0.0777907 0)
(51.0992 0.0941399 0)
(51.0583 0.107669 0)
(51.0072 0.115932 0)
(50.9477 0.117011 0)
(50.8827 0.11036 0)
(50.8152 0.0971353 0)
(50.7475 0.0797615 0)
(50.6807 0.0611862 0)
(50.6149 0.0440305 0)
(50.5492 0.0300774 0)
(50.4828 0.0200993 0)
(50.4148 0.0139757 0)
(50.3446 0.0108597 0)
(50.2717 0.00953009 0)
(50.1961 0.00861544 0)
(50.1175 0.0068216 0)
(50.0358 0.00301364 0)
(49.9505 -0.00250077 0)
(49.8608 -0.0101459 0)
(49.7665 -0.0190329 0)
(49.6674 -0.0274501 0)
(49.5621 -0.0340006 0)
(49.4511 -0.0390536 0)
(49.3346 -0.0405507 0)
(49.2134 -0.0402693 0)
(49.0904 -0.0370826 0)
(48.9666 -0.0310979 0)
(48.8433 -0.0244737 0)
(48.7276 -0.0163249 0)
(48.6102 -0.00578493 0)
(48.5082 2.27542e-05 0)
(51.1087 -0.0119569 0)
(51.099 -0.00266173 0)
(51.118 -0.00606401 0)
(51.1224 -0.00289428 0)
(51.1302 -0.00315741 0)
(51.1355 -0.00196819 0)
(51.1408 -0.00144987 0)
(51.1456 -0.00038435 0)
(51.1501 0.000714624 0)
(51.1548 0.00258123 0)
(51.159 0.00523887 0)
(51.1632 0.00891521 0)
(51.1668 0.0141144 0)
(51.169 0.0214158 0)
(51.1687 0.0314547 0)
(51.1643 0.0444794 0)
(51.1537 0.0602424 0)
(51.1351 0.0779791 0)
(51.1063 0.0962115 0)
(51.0662 0.112501 0)
(51.0148 0.124193 0)
(50.9537 0.12884 0)
(50.8859 0.125181 0)
(50.8146 0.113742 0)
(50.7428 0.0966067 0)
(50.6723 0.0767831 0)
(50.6038 0.05731 0)
(50.5366 0.040521 0)
(50.47 0.0277426 0)
(50.4027 0.0192982 0)
(50.334 0.0146084 0)
(50.2633 0.0124973 0)
(50.1902 0.011548 0)
(50.1145 0.0102764 0)
(50.0359 0.00749096 0)
(49.9543 0.00213687 0)
(49.869 -0.00493243 0)
(49.7792 -0.0139664 0)
(49.6848 -0.0237307 0)
(49.5853 -0.0323301 0)
(49.4795 -0.0383417 0)
(49.368 -0.0424147 0)
(49.2512 -0.0425864 0)
(49.1302 -0.0409761 0)
(49.0077 -0.0366018 0)
(48.8851 -0.0297181 0)
(48.7636 -0.0225821 0)