/*--------------------------------*- C++ -*----------------------------------*\
  =========                 |
  \\      /  F ield         | OpenFOAM: The Open Source CFD Toolbox
   \\    /   O peration     | Website:  https://openfoam.org
    \\  /    A nd           | Version:  dev
     \\/     M anipulation  |
\*---------------------------------------------------------------------------*/
FoamFile
{
    version     2.0;
    format      ascii;
    class       volScalarField;
    location    "25";
    object      yPlus;
}
// * * * * * * * * * * * * * * * * * * * * * * * * * * * * * * * * * * * * * //

dimensions      [0 0 0 0 0 0 0];

internalField   uniform 0;

boundaryField
{
    inlet-l
    {
        type            calculated;
        value           uniform 0;
    }
    airfoil-l1
    {
        type            calculated;
        value           nonuniform List<scalar> 
71
(
197.885
220.114
253.226
285.423
310.727
326.958
336.279
340.685
341.619
340.132
336.882
332.656
327.056
320.505
313.243
305.445
297.219
288.652
279.832
270.905
262.016
253.27
244.76
236.53
228.582
220.887
213.408
206.11
199.018
192.178
185.675
179.631
174.189
169.483
165.635
162.681
160.585
159.259
158.618
158.613
159.149
160.164
161.629
163.411
165.505
167.786
170.3
172.916
175.598
178.241
180.817
183.163
185.13
186.55
187.114
186.619
185.016
182.133
177.962
172.457
165.802
158.187
150.036
141.904
134.414
128.235
123.843
121.418
120.829
121.508
121.518
)
;
    }
    empty-1
    {
        type            empty;
    }
    empty-2
    {
        type            empty;
    }
    wall-l1
    {
        type            calculated;
        value           nonuniform List<scalar> 
104
(
49.6854
50.3343
51.138
51.9423
52.7121
53.4632
54.2304
55.0384
55.9003
56.8218
57.8046
58.8477
59.9311
61.0561
62.2267
63.4516
64.7371
66.0823
67.4774
68.9159
70.3872
71.8775
73.3715
74.8532
76.3003
77.6952
79.022
80.2637
81.4036
82.4295
83.3306
84.0924
84.7032
85.1602
85.4493
85.5692
85.515
85.2853
84.8812
84.3036
83.5603
82.6544
81.5936
80.389
79.0512
77.5891
76.0182
74.3502
72.6034
70.7868
68.9185
67.0161
65.0915
63.1639
61.2455
59.3549
57.5032
55.7074
53.9794
52.3312
50.7733
49.3145
47.9608
46.7185
45.5885
44.5689
43.6599
42.8565
42.1512
41.5366
41.0059
40.5485
40.1572
39.8232
39.5387
39.2974
39.0911
38.9161
38.767
38.6395
38.5302
38.4363
38.3546
38.2845
38.2228
38.1687
38.1206
38.0778
38.0389
38.0047
37.9725
37.9441
37.9166
37.8923
37.8685
37.8472
37.8265
37.8063
37.7878
37.7704
37.7531
37.736
37.7234
37.688
)
;
    }
    airfoil-l2
    {
        type            calculated;
        value           nonuniform List<scalar> 
104
(
127.894
135.635
140.62
143.591
145.092
145.584
145.349
144.671
143.732
142.797
142.036
141.56
141.385
141.493
141.806
142.217
142.599
142.902
143.054
143.048
142.904
142.656
142.34
141.991
141.642
141.312
140.998
140.698
140.406
140.111
139.808
139.514
139.226
138.932
138.642
138.367
138.109
137.87
137.647
137.434
137.232
137.039
136.853
136.673
136.497
136.318
136.133
135.942
135.746
135.541
135.321
135.09
134.846
134.591
134.319
134.03
133.718
133.393
133.05
132.689
132.305
131.905
131.492
131.052
130.597
130.126
129.636
129.127
128.606
128.076
127.53
126.961
126.383
125.795
125.181
124.567
123.94
123.29
122.629
121.954
121.262
120.546
119.822
119.071
118.292
117.489
116.66
115.792
114.873
113.921
112.915
111.841
110.69
109.449
108.1
106.613
104.958
103.094
100.969
98.4809
95.5696
91.8939
87.7549
80.0083
)
;
    }
    empty-3
    {
        type            empty;
    }
    empty-4
    {
        type            empty;
    }
    wall-l2
    {
        type            calculated;
        value           nonuniform List<scalar> 
51
(
37.7175
37.6955
37.6675
37.6566
37.6504
37.6395
37.63
37.626
37.6227
37.6173
37.6075
37.5961
37.5869
37.582
37.5804
37.5801
37.5793
37.5764
37.5713
37.5648
37.5577
37.5508
37.5446
37.539
37.5332
37.5269
37.5191
37.5096
37.4977
37.4833
37.4661
37.4459
37.4224
37.3954
37.3644
37.3293
37.2894
37.2446
37.1943
37.1385
37.0769
37.0097
36.9367
36.8588
36.7754
36.688
36.5934
36.4981
36.3842
36.3274
36.1082
)
;
    }
    outlet-l
    {
        type            calculated;
        value           uniform 0;
    }
    empty-5
    {
        type            empty;
    }
    empty-6
    {
        type            empty;
    }
    outlet-h
    {
        type            calculated;
        value           uniform 0;
    }
    wall-h2
    {
        type            calculated;
        value           nonuniform List<scalar> 
51
(
37.7213
37.6982
37.6701
37.6591
37.6528
37.6417
37.6319
37.6276
37.6239
37.6182
37.6081
37.5964
37.587
37.5819
37.5801
37.5797
37.5787
37.5757
37.5706
37.5641
37.5572
37.5507
37.545
37.5399
37.535
37.5295
37.5227
37.5141
37.5031
37.4894
37.4726
37.4524
37.4284
37.4004
37.3677
37.3303
37.2875
37.2392
37.1851
37.1253
37.0598
36.9888
36.9125
36.8317
36.746
36.6568
36.5608
36.4643
36.3492
36.2918
36.0663
)
;
    }
    empty-7
    {
        type            empty;
    }
    empty-8
    {
        type            empty;
    }
    airfoil-h2
    {
        type            calculated;
        value           nonuniform List<scalar> 
104
(
127.346
135.184
140.231
143.226
144.696
145.111
144.781
143.995
143.014
142.081
141.351
140.915
140.795
140.96
141.328
141.797
142.248
142.608
142.813
142.865
142.771
142.562
142.28
141.965
141.642
141.317
141.017
140.725
140.434
140.152
139.865
139.574
139.285
139.013
138.747
138.489
138.241
138.009
137.8
137.6
137.419
137.24
137.069
136.9
136.735
136.569
136.395
136.214
136.026
135.825
135.624
135.395
135.159
134.912
134.645
134.361
134.065
133.746
133.4
133.046
132.663
132.274
131.855
131.422
130.97
130.501
130.014
129.506
128.985
128.452
127.894
127.331
126.749
126.153
125.544
124.917
124.285
123.63
122.963
122.278
121.572
120.856
120.12
119.355
118.571
117.764
116.92
116.042
115.122
114.155
113.133
112.044
110.876
109.621
108.253
106.751
105.079
103.195
101.041
98.5261
95.5847
91.8711
87.695
79.8716
)
;
    }
    wall-h1
    {
        type            calculated;
        value           nonuniform List<scalar> 
104
(
49.6852
50.3181
51.1149
51.9125
52.701
53.4644
54.2427
55.058
55.9249
56.8483
57.83
58.869
59.9472
61.0649
62.2268
63.4436
64.7211
66.057
67.4452
68.8782
70.3429
71.8296
73.3205
74.8001
76.2454
77.6403
78.9662
80.2073
81.3501
82.3766
83.28
84.043
84.6587
85.118
85.4106
85.5339
85.4836
85.2581
84.8582
84.2847
83.5468
82.6429
81.5883
80.3858
79.0529
77.5946
76.0272
74.3637
72.6179
70.8058
68.9395
67.0381
65.1172
63.1902
61.2731
59.3832
57.5323
55.7368
54.0081
52.361
50.8019
49.3424
47.9876
46.7443
45.6132
44.5924
43.6821
42.8775
42.1704
41.5552
41.0234
40.5656
40.1728
39.838
39.5527
39.3108
39.104
38.9278
38.7788
38.6515
38.5413
38.4465
38.3655
38.294
38.2327
38.1782
38.1298
38.0868
38.0475
38.0131
37.9806
37.9519
37.9242
37.8997
37.8755
37.8539
37.8324
37.8125
37.7942
37.7754
37.7583
37.7416
37.7271
37.6927
)
;
    }
    empty-9
    {
        type            empty;
    }
    empty-10
    {
        type            empty;
    }
    inlet-h
    {
        type            calculated;
        value           uniform 0;
    }
    airfoil-h1
    {
        type            calculated;
        value           nonuniform List<scalar> 
71
(
195.848
215.298
247.768
280.65
307.795
325.908
336.936
342.685
344.649
343.884
341.156
337.151
331.802
325.402
318.173
310.321
301.973
293.211
284.11
274.846
265.568
256.396
247.455
238.804
230.427
222.324
214.455
206.802
199.356
192.161
185.307
178.917
173.127
168.078
163.91
160.665
158.33
156.834
156.066
155.95
156.419
157.381
158.779
160.531
162.622
164.916
167.419
170.05
172.77
175.505
178.114
180.569
182.688
184.296
185.075
184.829
183.455
180.806
176.789
171.437
164.838
157.248
149.071
140.875
133.323
127.066
122.674
120.285
119.814
120.661
120.813
)
;
    }
    empty-11
    {
        type            empty;
    }
    empty-12
    {
        type            empty;
    }
}


// ************************************************************************* //
