/*--------------------------------*- C++ -*----------------------------------*\
  =========                 |
  \\      /  F ield         | OpenFOAM: The Open Source CFD Toolbox
   \\    /   O peration     | Website:  https://openfoam.org
    \\  /    A nd           | Version:  dev
     \\/     M anipulation  |
\*---------------------------------------------------------------------------*/
FoamFile
{
    version     2.0;
    format      ascii;
    class       surfaceScalarField;
    location    "325";
    object      phi;
}
// * * * * * * * * * * * * * * * * * * * * * * * * * * * * * * * * * * * * * //

dimensions      [0 3 -1 0 0 0 0];

internalField   nonuniform List<scalar> 
58294
(
-0.473394
-1.12695e-05
-0.473393
-9.15402e-06
-0.429559
-8.66474e-06
-0.473395
-4.6377e-06
-0.429561
-6.56302e-06
-0.389856
-4.85498e-06
-0.473398
-1.601e-06
-0.429562
-3.4789e-06
-0.389858
-3.78996e-06
-0.35379
-5.19176e-06
-0.473401
-1.31439e-07
-0.429562
-1.3707e-06
-0.389858
-3.70331e-06
-0.353789
-4.06469e-06
-0.321074
-7.90451e-06
-0.473403
-6.06719e-07
-0.429562
-3.79764e-07
-0.389856
-3.05344e-06
-0.353789
-3.79667e-06
-0.321072
-6.34398e-06
-0.291375
-9.98478e-06
-0.473403
-2.42474e-06
-0.429562
-4.06871e-07
-0.389855
-1.88508e-06
-0.353789
-2.65527e-06
-0.321071
-4.8319e-06
-0.291373
-8.47965e-06
-0.264424
-1.3544e-05
-0.473403
-4.63738e-06
-0.429564
-1.12418e-06
-0.389855
-2.11724e-07
-0.35379
-8.32476e-07
-0.321071
-2.58777e-06
-0.291371
-6.73216e-06
-0.264421
-1.14543e-05
-0.239969
-1.72818e-05
-0.473402
-6.15298e-06
-0.429566
-1.82387e-06
-0.389858
1.74005e-06
-0.353792
1.59957e-06
-0.321071
1.54046e-08
-0.29137
-3.97174e-06
-0.264418
-9.16833e-06
-0.239966
-1.48589e-05
-0.217767
-2.16144e-05
-0.473401
-6.34986e-06
-0.42957
-2.14004e-06
-0.389863
3.43423e-06
-0.353795
4.28554e-06
-0.321073
2.86712e-06
-0.291369
-7.43866e-07
-0.264416
-5.85252e-06
-0.239962
-1.215e-05
-0.217763
-1.86777e-05
-0.197623
-2.6006e-05
-0.473402
-5.18125e-06
-0.429575
-1.80689e-06
-0.38987
4.37778e-06
-0.353798
6.55555e-06
-0.321074
5.5716e-06
-0.291369
2.74632e-06
-0.264415
-2.03651e-06
-0.23996
-8.35164e-06
-0.21776
-1.56209e-05
-0.197619
-2.27989e-05
-0.17934
-3.05903e-05
-0.473404
-3.27396e-06
-0.429579
-1.1101e-06
-0.389876
4.20163e-06
-0.353801
7.84201e-06
-0.321075
7.83538e-06
-0.291369
6.16093e-06
-0.264414
2.10552e-06
-0.239958
-3.99148e-06
-0.217757
-1.14282e-05
-0.197615
-1.94604e-05
-0.179336
-2.69878e-05
-0.162747
-3.49984e-05
-0.473406
-1.54864e-06
-0.429581
-3.9233e-07
-0.38988
2.98851e-06
-0.353805
7.77473e-06
-0.321077
9.27208e-06
-0.291371
9.0857e-06
-0.264414
6.21572e-06
-0.239957
7.84332e-07
-0.217754
-6.59669e-06
-0.197611
-1.49798e-05
-0.179332
-2.34873e-05
-0.162743
-3.11639e-05
-0.14769
-3.93513e-05
-0.473409
-8.85812e-07
-0.429583
-1.82952e-07
-0.389881
1.11278e-06
-0.353808
6.4778e-06
-0.321079
9.80786e-06
-0.291373
1.12893e-05
-0.264415
1.00011e-05
-0.239956
5.68171e-06
-0.217752
-1.21477e-06
-0.197608
-9.77788e-06
-0.179328
-1.88502e-05
-0.162739
-2.75375e-05
-0.147686
-3.51771e-05
-0.134027
-4.33528e-05
-0.47341
-1.69854e-06
-0.429583
-6.67197e-07
-0.389881
-7.46796e-07
-0.353812
4.44025e-06
-0.321082
9.45662e-06
-0.291375
1.25913e-05
-0.264417
1.31336e-05
-0.239956
1.03592e-05
-0.217751
4.42823e-06
-0.197605
-3.88408e-06
-0.179324
-1.34263e-05
-0.162735
-2.28886e-05
-0.147682
-3.15498e-05
-0.134023
-3.90161e-05
-0.121625
-4.71917e-05
-0.47341
-3.80849e-06
-0.429583
-1.84574e-06
-0.389879
-2.02728e-06
-0.353815
2.41464e-06
-0.321086
8.56263e-06
-0.291379
1.3112e-05
-0.26442
1.54939e-05
-0.239958
1.45387e-05
-0.21775
1.00279e-05
-0.197603
2.45557e-06
-0.179321
-7.15909e-06
-0.162731
-1.74114e-05
-0.147678
-2.70188e-05
-0.134019
-3.54357e-05
-0.121621
-4.25867e-05
-0.110372
-5.05705e-05
-0.473408
-6.4939e-06
-0.429583
-3.31376e-06
-0.389879
-2.35731e-06
-0.353818
1.06175e-06
-0.321091
7.46467e-06
-0.291384
1.30243e-05
-0.264424
1.70141e-05
-0.23996
1.79744e-05
-0.217751
1.52419e-05
-0.197602
8.9109e-06
-0.179318
-2.65e-07
-0.162727
-1.09556e-05
-0.147673
-2.16461e-05
-0.134015
-3.11557e-05
-0.121618
-3.91467e-05
-0.110368
-4.5883e-05
-0.10016
-5.37648e-05
-0.473405
-8.81375e-06
-0.429585
-4.63068e-06
-0.38988
-1.82824e-06
-0.353821
7.49183e-07
-0.321096
6.5785e-06
-0.291389
1.26545e-05
-0.264429
1.7831e-05
-0.239964
2.05679e-05
-0.217753
1.97921e-05
-0.197602
1.51293e-05
-0.179316
6.95476e-06
-0.162723
-3.66184e-06
-0.147669
-1.51646e-05
-0.134011
-2.60317e-05
-0.121613
-3.5224e-05
-0.110365
-4.26199e-05
-0.100157
-4.88868e-05
-0.0908936
-5.6459e-05
-0.473402
-9.95639e-06
-0.429588
-5.33134e-06
-0.389884
-8.11905e-07
-0.353824
1.38404e-06
-0.321102
6.08263e-06
-0.291394
1.22098e-05
-0.264434
1.80842e-05
-0.239968
2.23149e-05
-0.217756
2.35099e-05
-0.197603
2.07978e-05
-0.179315
1.41182e-05
-0.162721
4.17774e-06
-0.147665
-7.64065e-06
-0.134006
-1.96825e-05
-0.121609
-3.04807e-05
-0.110361
-3.91631e-05
-0.100154
-4.58245e-05
-0.0908908
-5.15934e-05
-0.0824849
-5.89917e-05
-0.4734
-9.55993e-06
-0.429593
-5.26817e-06
-0.389889
8.68795e-08
-0.353828
2.49774e-06
-0.321106
6.01848e-06
-0.2914
1.18551e-05
-0.26444
1.7983e-05
-0.239974
2.33186e-05
-0.21776
2.63069e-05
-0.197605
2.56612e-05
-0.179315
2.08653e-05
-0.162719
1.21829e-05
-0.147662
6.79531e-07
-0.134002
-1.20764e-05
-0.121604
-2.4403e-05
-0.110357
-3.49097e-05
-0.10015
-4.29119e-05
-0.0908879
-4.87488e-05
-0.0824824
-5.4054e-05
-0.0748475
-6.10231e-05
-0.4734
-7.81218e-06
-0.429597
-4.52534e-06
-0.389895
3.83979e-07
-0.353831
3.4317e-06
-0.32111
6.15892e-06
-0.291406
1.1547e-05
-0.264446
1.76372e-05
-0.239979
2.37083e-05
-0.217765
2.82362e-05
-0.197608
2.9625e-05
-0.179316
2.69284e-05
-0.162718
1.99688e-05
-0.147659
9.40844e-06
-0.133998
-3.42345e-06
-0.121599
-1.68595e-05
-0.110352
-2.92328e-05
-0.100146
-3.92525e-05
-0.0908844
-4.64532e-05
-0.0824798
-5.13785e-05
-0.0748452
-5.62361e-05
-0.0679251
-6.29261e-05
-0.473401
-5.36253e-06
-0.429602
-3.49597e-06
-0.389899
-1.96552e-07
-0.353834
3.61522e-06
-0.321113
6.22109e-06
-0.291411
1.11842e-05
-0.264451
1.71235e-05
-0.239985
2.36363e-05
-0.21777
2.93755e-05
-0.197613
3.26355e-05
-0.179319
3.211e-05
-0.162718
2.71932e-05
-0.147657
1.81231e-05
-0.133994
5.89212e-06
-0.121595
-8.01371e-06
-0.110347
-2.18859e-05
-0.100141
-3.40894e-05
-0.0908802
-4.34496e-05
-0.0824765
-4.97526e-05
-0.0748429
-5.37465e-05
-0.0679231
-5.82349e-05
-0.061636
-6.43601e-05
-0.473403
-3.05274e-06
-0.429604
-2.60652e-06
-0.389901
-1.54305e-06
-0.353837
2.77759e-06
-0.321115
5.88532e-06
-0.291415
1.05749e-05
-0.264457
1.64093e-05
-0.239991
2.31898e-05
-0.217777
2.98644e-05
-0.197618
3.47665e-05
-0.179323
3.63567e-05
-0.162719
3.36486e-05
-0.147656
2.64626e-05
-0.133991
1.54262e-05
-0.121591
1.7599e-06
-0.110342
-1.29696e-05
-0.100136
-2.7047e-05
-0.0908753
-3.8889e-05
-0.0824724
-4.74762e-05
-0.0748398
-5.28356e-05
-0.067921
-5.58117e-05
-0.0616342
-5.99952e-05
-0.0559344
-6.57187e-05
-0.473404
-1.60871e-06
-0.429605
-2.24356e-06
-0.389901
-3.29755e-06
-0.35384
1.03945e-06
-0.321117
5.00424e-06
-0.291419
9.60719e-06
-0.264461
1.54563e-05
-0.239997
2.24321e-05
-0.217783
2.97931e-05
-0.197624
3.60781e-05
-0.179327
3.96354e-05
-0.162722
3.91802e-05
-0.147657
3.41315e-05
-0.13399
2.47507e-05
-0.121587
1.19717e-05
-0.110337
-2.86863e-06
-0.100131
-1.81857e-05
-0.0908701
-3.22622e-05
-0.0824677
-4.35886e-05
-0.0748359
-5.13047e-05
-0.0679181
-5.56555e-05
-0.0616324
-5.76469e-05
-0.0559327
-6.16619e-05
-0.0507599
-6.66598e-05
-0.473405
-1.3965e-06
-0.429604
-2.52275e-06
-0.389898
-4.93368e-06
-0.353842
-1.14925e-06
-0.32112
3.59215e-06
-0.291422
8.23967e-06
-0.264466
1.42058e-05
-0.240003
2.1361e-05
-0.21779
2.92451e-05
-0.197631
3.66657e-05
-0.179333
4.20026e-05
-0.162726
4.37465e-05
-0.147659
4.09718e-05
-0.133989
3.35619e-05
-0.121585
2.21688e-05
-0.110333
7.90714e-06
-0.100126
-7.85835e-06
-0.0908648
-2.35386e-05
-0.0824625
-3.74329e-05
-0.0748314
-4.81372e-05
-0.0679145
-5.49267e-05
-0.0616298
-5.82566e-05
-0.0559311
-5.92028e-05
-0.0507584
-6.31319e-05
-0.046061
-6.75595e-05
-0.473404
-2.33851e-06
-0.429602
-3.33666e-06
-0.389894
-6.01364e-06
-0.353843
-3.19334e-06
-0.321122
1.8801e-06
-0.291425
6.58479e-06
-0.26447
1.26727e-05
-0.240009
1.99829e-05
-0.217797
2.82501e-05
-0.197639
3.65776e-05
-0.17934
4.34735e-05
-0.162732
4.73138e-05
-0.147662
4.68545e-05
-0.13399
4.16238e-05
-0.121583
3.19718e-05
-0.11033
1.88288e-05
-0.100121
3.36014e-06
-0.0908595
-1.30961e-05
-0.0824571
-2.89476e-05
-0.0748263
-4.25328e-05
-0.0679101
-5.25236e-05
-0.0616264
-5.83082e-05
-0.0559288
-6.05988e-05
-0.050757
-6.05794e-05
-0.0460596
-6.4562e-05
-0.0417988
-6.8096e-05
-0.473403
-3.9839e-06
-0.4296
-4.34632e-06
-0.389891
-6.27708e-06
-0.353845
-4.56605e-06
-0.321126
1.88045e-07
-0.291428
4.83067e-06
-0.264475
1.09231e-05
-0.240015
1.83056e-05
-0.217804
2.68383e-05
-0.197646
3.58704e-05
-0.179348
4.41046e-05
-0.162738
4.98857e-05
-0.147666
5.17381e-05
-0.133992
4.88173e-05
-0.121583
4.11593e-05
-0.110327
2.95009e-05
-0.100117
1.48975e-05
-0.0908546
-1.52215e-06
-0.0824518
-1.84437e-05
-0.0748209
-3.43083e-05
-0.0679052
-4.74815e-05
-0.0616222
-5.66886e-05
-0.0559256
-6.14679e-05
-0.0507549
-6.27439e-05
-0.0460584
-6.1693e-05
-0.0417975
-6.58226e-05
-0.037931
-6.86209e-05
-0.473399
-5.71463e-06
-0.429599
-5.18093e-06
-0.38989
-5.75401e-06
-0.353846
-4.9897e-06
-0.321129
-1.14667e-06
-0.291431
3.22446e-06
-0.264479
9.09887e-06
-0.24002
1.63986e-05
-0.21781
2.50419e-05
-0.197654
3.45764e-05
-0.179356
4.3916e-05
-0.162745
5.14607e-05
-0.147672
5.55608e-05
-0.133995
5.5043e-05
-0.121583
4.95585e-05
-0.110326
3.96395e-05
-0.100114
2.62723e-05
-0.0908503
1.05107e-05
-0.0824467
-6.60225e-06
-0.0748155
-2.3825e-05
-0.0678999
-3.96008e-05
-0.0616174
-5.22791e-05
-0.0559217
-6.06447e-05
-0.050752
-6.4377e-05
-0.0460565
-6.46424e-05
-0.0417965
-6.26744e-05
-0.0379298
-6.70893e-05
-0.0344202
-6.88461e-05
-0.473397
-6.96951e-06
-0.429598
-5.53061e-06
-0.38989
-4.67459e-06
-0.353847
-4.49643e-06
-0.321132
-1.91202e-06
-0.291434
1.95816e-06
-0.264483
7.36155e-06
-0.240025
1.43621e-05
-0.217817
2.29386e-05
-0.197662
3.27647e-05
-0.179364
4.29688e-05
-0.162754
5.20589e-05
-0.147679
5.82984e-05
-0.134
6.02162e-05
-0.121585
5.70865e-05
-0.110325
4.91172e-05
-0.100112
3.72172e-05
-0.0908464
2.24732e-05
-0.082442
5.84395e-06
-0.0748104
-1.176e-05
-0.0678945
-2.91404e-05
-0.0616123
-4.47262e-05
-0.0559171
-5.68427e-05
-0.0507482
-6.43468e-05
-0.0460538
-6.70753e-05
-0.0417948
-6.63651e-05
-0.0379289
-6.34227e-05
-0.0344191
-6.82101e-05
-0.0312344
-6.90791e-05
-0.473393
-7.42281e-06
-0.4296
-5.29882e-06
-0.389892
-3.40541e-06
-0.353849
-3.38622e-06
-0.321135
-2.05614e-06
-0.291437
1.14217e-06
-0.264487
5.85945e-06
-0.24003
1.23451e-05
-0.217823
2.06367e-05
-0.197669
3.05273e-05
-0.179373
4.13283e-05
-0.162762
5.17152e-05
-0.147687
5.99295e-05
-0.134006
6.4279e-05
-0.121589
6.36355e-05
-0.110326
5.78309e-05
-0.10011
4.7573e-05
-0.0908433
3.40256e-05
-0.0824378
1.82492e-05
-0.0748055
1.02557e-06
-0.0678894
-1.6902e-05
-0.0616071
-3.43649e-05
-0.0559121
-4.9698e-05
-0.0507439
-6.12131e-05
-0.0460503
-6.78345e-05
-0.0417923
-6.95202e-05
-0.0379274
-6.78639e-05
-0.0344184
-6.40862e-05
-0.0312333
-6.93521e-05
-0.0283439
-6.90653e-05
-0.473392
-7.05091e-06
-0.429603
-4.5776e-06
-0.389895
-2.28063e-06
-0.35385
-2.09001e-06
-0.321136
-1.71356e-06
-0.29144
7.5523e-07
-0.264491
4.67876e-06
-0.240035
1.04754e-05
-0.217829
1.82875e-05
-0.197677
2.79996e-05
-0.179381
3.91221e-05
-0.162772
5.05085e-05
-0.147695
6.04729e-05
-0.134013
6.71623e-05
-0.121594
6.91021e-05
-0.110328
6.56798e-05
-0.100109
5.73042e-05
-0.0908408
4.50801e-05
-0.082434
3.02704e-05
-0.0748011
1.37964e-05
-0.0678845
-3.81623e-06
-0.061602
-2.19632e-05
-0.0559071
-3.93995e-05
-0.0507391
-5.44226e-05
-0.0460462
-6.53177e-05
-0.0417891
-7.10551e-05
-0.0379252
-7.17717e-05
-0.0344171
-6.9212e-05
-0.0312328
-6.45402e-05
-0.0283428
-7.0355e-05
-0.0257205
-6.90669e-05
-0.47339
-6.07979e-06
-0.429606
-3.63151e-06
-0.389898
-1.53537e-06
-0.353851
-1.01686e-06
-0.321137
-1.12828e-06
-0.291442
6.78496e-07
-0.264494
3.83197e-06
-0.240039
8.85937e-06
-0.217835
1.60262e-05
-0.197684
2.53446e-05
-0.17939
3.64897e-05
-0.162781
4.8559e-05
-0.147705
5.99801e-05
-0.134021
6.88526e-05
-0.1216
7.33978e-05
-0.110331
7.2562e-05
-0.10011
6.63258e-05
-0.0908391
5.56119e-05
-0.0824308
4.17893e-05
-0.0747969
2.6105e-05
-0.06788
9.22453e-06
-0.0615972
-8.60483e-06
-0.0559022
-2.6871e-05
-0.0507343
-4.42657e-05
-0.0460417
-5.89613e-05
-0.0417852
-6.92195e-05
-0.0379222
-7.4063e-05
-0.034415
-7.37754e-05
-0.0312316
-7.0362e-05
-0.0283424
-6.495e-05
-0.0257195
-7.13837e-05
-0.0233404
-6.88747e-05
-0.47339
-4.86552e-06
-0.429609
-2.75177e-06
-0.389901
-1.23541e-06
-0.353852
-4.25333e-07
-0.321138
-5.7967e-07
-0.291444
7.30305e-07
-0.264496
3.25064e-06
-0.240043
7.53508e-06
-0.21784
1.39707e-05
-0.19769
2.27115e-05
-0.179398
3.36229e-05
-0.162791
4.6022e-05
-0.147715
5.85666e-05
-0.134031
6.93618e-05
-0.121607
7.64453e-05
-0.110336
7.83293e-05
-0.100112
7.45214e-05
-0.0908383
6.56003e-05
-0.082428
5.28996e-05
-0.074793
3.79148e-05
-0.0678756
2.17314e-05
-0.0615927
4.68383e-06
-0.0558975
-1.32527e-05
-0.0507295
-3.15967e-05
-0.046037
-4.88722e-05
-0.0417809
-6.32173e-05
-0.0379185
-7.2839e-05
-0.0344123
-7.68016e-05
-0.0312298
-7.56134e-05
-0.0283414
-7.13887e-05
-0.0257192
-6.51825e-05
-0.0233394
-7.22868e-05
-0.0211794
-6.87023e-05
-0.473389
-3.74551e-06
-0.429612
-2.17755e-06
-0.389902
-1.32128e-06
-0.353853
-3.76727e-07
-0.321138
-2.79941e-07
-0.291445
7.3896e-07
-0.264498
2.82633e-06
-0.240046
6.47919e-06
-0.217845
1.21813e-05
-0.197697
2.0228e-05
-0.179406
3.06734e-05
-0.1628
4.30929e-05
-0.147725
5.63711e-05
-0.134041
6.87776e-05
-0.121616
7.82206e-05
-0.110343
8.288e-05
-0.100115
8.17497e-05
-0.0908388
7.49699e-05
-0.0824261
6.36368e-05
-0.0747895
4.93523e-05
-0.0678713
3.36168e-05
-0.0615882
1.72549e-05
-0.0558931
2.27674e-07
-0.0507251
-1.77179e-05
-0.0460325
-3.60913e-05
-0.0417765
-5.32871e-05
-0.0379145
-6.72792e-05
-0.0344089
-7.62543e-05
-0.0312272
-7.9345e-05
-0.0283397
-7.72195e-05
-0.0257183
-7.22521e-05
-0.0233392
-6.54053e-05
-0.0211785
-7.32049e-05
-0.0192193
-6.83749e-05
-0.473389
-2.93346e-06
-0.429613
-1.99636e-06
-0.389902
-1.64363e-06
-0.353853
-7.55577e-07
-0.321138
-3.27336e-07
-0.291446
5.86435e-07
-0.2645
2.44065e-06
-0.240049
5.61974e-06
-0.217849
1.06556e-05
-0.197702
1.79719e-05
-0.179414
2.77912e-05
-0.162809
3.9939e-05
-0.147736
5.35977e-05
-0.134052
6.72122e-05
-0.121626
7.8755e-05
-0.110351
8.61181e-05
-0.10012
8.78452e-05
-0.0908406
8.35439e-05
-0.0824251
7.39558e-05
-0.0747864
6.05801e-05
-0.0678671
4.5172e-05
-0.0615837
2.90988e-05
-0.0558886
1.28375e-05
-0.0507208
-4.0278e-06
-0.0460283
-2.19483e-05
-0.0417723
-4.03617e-05
-0.0379103
-5.74084e-05
-0.0344051
-7.10419e-05
-0.0312241
-7.93956e-05
-0.0283374
-8.16328e-05
-0.0257168
-7.86927e-05
-0.0233384
-7.30206e-05
-0.0211784
-6.54823e-05
-0.0192185
-7.4e-05
-0.0174401
-6.80639e-05
-0.473388
-2.48084e-06
-0.429614
-2.15372e-06
-0.389903
-2.04779e-06
-0.353854
-1.35176e-06
-0.321138
-6.85168e-07
-0.291447
2.43232e-07
-0.264502
2.00897e-06
-0.240051
4.86803e-06
-0.217852
9.34728e-06
-0.197708
1.59556e-05
-0.179421
2.50665e-05
-0.162818
3.67229e-05
-0.147746
5.04103e-05
-0.134063
6.48592e-05
-0.121637
7.81271e-05
-0.11036
8.80322e-05
-0.100127
9.26769e-05
-0.0908439
9.11551e-05
-0.0824252
8.37209e-05
-0.0747841
7.16308e-05
-0.0678632
5.66527e-05
-0.061579
4.05437e-05
-0.055884
2.44687e-05
-0.0507165
8.52495e-06
-0.0460243
-8.07898e-06
-0.0417683
-2.59345e-05
-0.0379063
-4.43734e-05
-0.0344012
-6.13392e-05
-0.0312205
-7.46243e-05
-0.0283345
-8.23476e-05
-0.0257147
-8.37526e-05
-0.0233371
-7.99563e-05
-0.0211777
-7.36643e-05
-0.0192184
-6.5572e-05
-0.0174393
-7.4791e-05
-0.015826
-6.76336e-05
-0.473387
-2.31032e-06
-0.429614
-2.47854e-06
-0.389902
-2.40805e-06
-0.353854
-1.94667e-06
-0.321138
-1.22432e-06
-0.291447
-2.41081e-07
-0.264503
1.49811e-06
-0.240054
4.146e-06
-0.217856
8.18464e-06
-0.197713
1.41552e-05
-0.179427
2.25354e-05
-0.162827
3.35625e-05
-0.147756
4.69936e-05
-0.134074
6.18752e-05
-0.121649
7.64971e-05
-0.11037
8.86338e-05
-0.100135
9.61594e-05
-0.0908488
9.76061e-05
-0.0824268
9.27183e-05
-0.0747828
8.23598e-05
-0.0678597
6.81701e-05
-0.0615744
5.20394e-05
-0.0558791
3.56502e-05
-0.0507119
1.98908e-05
-0.0460202
4.44562e-06
-0.0417645
-1.18386e-05
-0.0379026
-2.96548e-05
-0.0343974
-4.81518e-05
-0.0312169
-6.49675e-05
-0.0283312
-7.79121e-05
-0.025712
-8.50451e-05
-0.0233352
-8.56385e-05
-0.0211765
-8.11246e-05
-0.0192178
-7.42384e-05
-0.0174392
-6.55456e-05
-0.0158252
-7.54757e-05
-0.0143611
-6.72124e-05
-0.473386
-2.28267e-06
-0.429614
-2.78148e-06
-0.389902
-2.66099e-06
-0.353854
-2.38744e-06
-0.321138
-1.77508e-06
-0.291448
-7.65209e-07
-0.264504
9.30255e-07
-0.240055
3.41383e-06
-0.217859
7.10022e-06
-0.197717
1.25174e-05
-0.179433
2.01961e-05
-0.162835
3.05155e-05
-0.147766
4.34851e-05
-0.134086
5.84553e-05
-0.121661
7.40061e-05
-0.110382
8.80496e-05
-0.100145
9.825e-05
-0.0908554
0.000102771
-0.0824299
0.000100739
-0.0747826
9.25743e-05
-0.067857
7.96415e-05
-0.0615701
6.38062e-05
-0.055874
4.69586e-05
-0.0507069
3.06241e-05
-0.0460157
1.54143e-05
-0.0417607
5.8589e-07
-0.0378991
-1.53549e-05
-0.034394
-3.31162e-05
-0.0312133
-5.16706e-05
-0.0283277
-6.8424e-05
-0.0257089
-8.10394e-05
-0.0233327
-8.75682e-05
-0.0211748
-8.73861e-05
-0.0192167
-8.21114e-05
-0.0174387
-7.47204e-05
-0.0158252
-6.55322e-05
-0.0143604
-7.61253e-05
-0.0130316
-6.6699e-05
-0.473385
-2.27115e-06
-0.429613
-2.91259e-06
-0.389902
-2.78609e-06
-0.353854
-2.61334e-06
-0.321139
-2.19297e-06
-0.291448
-1.22098e-06
-0.264505
3.63742e-07
-0.240057
2.67087e-06
-0.217861
6.05454e-06
-0.197721
1.09907e-05
-0.179439
1.80218e-05
-0.162842
2.76148e-05
-0.147776
3.99752e-05
-0.134097
5.47588e-05
-0.121673
7.08445e-05
-0.110394
8.63755e-05
-0.100156
9.90109e-05
-0.0908637
0.000106529
-0.0824348
0.000107593
-0.0747839
0.000102017
-0.0678553
9.08395e-05
-0.0615662
7.57702e-05
-0.055869
5.87417e-05
-0.0507015
4.15618e-05
-0.0460107
2.56087e-05
-0.0417564
1.11655e-05
-0.0378955
-2.9579e-06
-0.0343907
-1.85524e-05
-0.0312101
-3.63144e-05
-0.0283245
-5.49664e-05
-0.0257057
-7.15856e-05
-0.0233298
-8.38884e-05
-0.0211725
-8.98653e-05
-0.0192152
-8.89278e-05
-0.0174378
-8.30287e-05
-0.0158248
-7.51438e-05
-0.0143604
-6.5426e-05
-0.013031
-7.66766e-05
-0.0118253
-6.62e-05
-0.473384
-2.20591e-06
-0.429613
-2.81655e-06
-0.389902
-2.80089e-06
-0.353854
-2.6421e-06
-0.321139
-2.39886e-06
-0.291449
-1.52881e-06
-0.264506
-1.33274e-07
-0.240059
1.95331e-06
-0.217864
5.03942e-06
-0.197724
9.54431e-06
-0.179444
1.59794e-05
-0.162849
2.48608e-05
-0.147785
3.65297e-05
-0.134108
5.09027e-05
-0.121686
6.7189e-05
-0.110407
8.37924e-05
-0.100168
9.84904e-05
-0.0908736
0.000108888
-0.0824413
0.000113112
-0.0747868
0.000110484
-0.0678548
0.000101516
-0.0615631
8.77248e-05
-0.0558642
7.0991e-05
-0.050696
5.31915e-05
-0.0460051
3.60214e-05
-0.0417515
2.06757e-05
-0.0378915
7.12942e-06
-0.0343875
-6.24858e-06
-0.0312072
-2.15108e-05
-0.0283215
-3.92615e-05
-0.0257027
-5.80164e-05
-0.0233269
-7.46011e-05
-0.0211698
-8.66005e-05
-0.0192131
-9.20057e-05
-0.0174364
-9.03588e-05
-0.0158239
-8.37874e-05
-0.01436
-7.55039e-05
-0.013031
-6.53225e-05
-0.0118248
-7.71708e-05
-0.010731
-6.56635e-05
-0.473383
-2.08371e-06
-0.429612
-2.52674e-06
-0.389902
-2.7243e-06
-0.353854
-2.53894e-06
-0.321139
-2.38777e-06
-0.29145
-1.66334e-06
-0.264507
-5.09825e-07
-0.24006
1.30882e-06
-0.217866
4.08106e-06
-0.197727
8.1707e-06
-0.179448
1.40544e-05
-0.162855
2.22473e-05
-0.147793
3.31861e-05
-0.134118
4.69908e-05
-0.121698
6.31749e-05
-0.110421
8.04703e-05
-0.100181
9.68291e-05
-0.0908849
0.000109821
-0.0824497
0.000117232
-0.0747914
0.000117749
-0.0678557
0.000111426
-0.0615609
9.93853e-05
-0.0558599
8.34569e-05
-0.0506905
6.55241e-05
-0.0459993
4.73268e-05
-0.0417459
3.04405e-05
-0.0378868
1.5926e-05
-0.0343837
3.40474e-06
-0.0312042
-9.19822e-06
-0.0283188
-2.41531e-05
-0.0257
-4.19644e-05
-0.023324
-6.08608e-05
-0.0211671
-7.73362e-05
-0.0192106
-8.90548e-05
-0.0174345
-9.39494e-05
-0.0158227
-9.16095e-05
-0.0143593
-8.44993e-05
-0.0130307
-7.58159e-05
-0.0118248
-6.51447e-05
-0.0107305
-7.76299e-05
-0.00973792
-6.51651e-05
-0.473382
-1.93691e-06
-0.429612
-2.139e-06
-0.389902
-2.57222e-06
-0.353855
-2.3726e-06
-0.321139
-2.21623e-06
-0.29145
-1.64651e-06
-0.264508
-7.48077e-07
-0.240062
7.7883e-07
-0.217868
3.2168e-06
-0.19773
6.89293e-06
-0.179452
1.22423e-05
-0.162861
1.9777e-05
-0.147801
2.99661e-05
-0.134128
4.30969e-05
-0.12171
5.89433e-05
-0.110434
7.65598e-05
-0.100195
9.4183e-05
-0.0908975
0.000109424
-0.0824597
0.000119859
-0.0747979
0.000123696
-0.0678583
0.000120329
-0.06156
0.000110521
-0.0558564
9.58601e-05
-0.0506853
7.82994e-05
-0.0459933
5.9594e-05
-0.0417399
4.13099e-05
-0.0378813
2.49368e-05
-0.0343792
1.13768e-05
-0.0312008
-6.68934e-08
-0.0283162
-1.19028e-05
-0.0256976
-2.6583e-05
-0.0233215
-4.44331e-05
-0.0211644
-6.34796e-05
-0.019208
-7.99473e-05
-0.0174322
-9.1388e-05
-0.0158209
-9.57442e-05
-0.0143581
-9.27699e-05
-0.01303
-8.50852e-05
-0.0118245
-7.60867e-05
-0.0107306
-6.49502e-05
-0.00973743
-7.80308e-05
-0.00883565
-6.35201e-05
-0.473382
-1.80927e-06
-0.429612
-1.75286e-06
-0.389902
-2.36007e-06
-0.353855
-2.18485e-06
-0.32114
-1.96911e-06
-0.291451
-1.53621e-06
-0.264509
-8.62815e-07
-0.240063
3.81559e-07
-0.217869
2.48075e-06
-0.197733
5.74142e-06
-0.179456
1.05683e-05
-0.162866
1.74539e-05
-0.147808
2.68984e-05
-0.134138
3.92766e-05
-0.121722
5.46014e-05
-0.110447
7.22236e-05
-0.100209
9.06922e-05
-0.0909111
0.000107809
-0.0824713
0.000121022
-0.0748062
0.000128164
-0.0678627
0.000128065
-0.0615606
0.00012087
-0.0558538
0.000107953
-0.0506807
9.11904e-05
-0.0459875
7.24902e-05
-0.0417337
5.3385e-05
-0.0378752
3.52651e-05
-0.0343738
1.95673e-05
-0.0311965
7.10234e-06
-0.028313
-3.19919e-06
-0.0256952
-1.42741e-05
-0.0233194
-2.87131e-05
-0.0211622
-4.66854e-05
-0.0192056
-6.59147e-05
-0.0174298
-8.23059e-05
-0.0158188
-9.34936e-05
-0.0143565
-9.73763e-05
-0.013029
-9.3784e-05
-0.0118239
-8.56376e-05
-0.0107303
-7.62945e-05
-0.0097375
-6.4763e-05
-0.00883609
-7.75363e-05
-0.00801043
-5.69378e-05
-0.473381
-1.72023e-06
-0.429612
-1.45611e-06
-0.389901
-2.09898e-06
-0.353855
-1.99827e-06
-0.32114
-1.71983e-06
-0.291452
-1.39852e-06
-0.26451
-8.92534e-07
-0.240064
1.09765e-07
-0.217871
1.88925e-06
-0.197735
4.74292e-06
-0.179459
9.0566e-06
-0.162871
1.53065e-05
-0.147814
2.39968e-05
-0.134146
3.55876e-05
-0.121733
5.02414e-05
-0.11046
6.76043e-05
-0.100223
8.65365e-05
-0.0909255
0.000105095
-0.0824843
0.000120781
-0.0748163
0.000131111
-0.0678689
0.00013441
-0.0615628
0.000130251
-0.0558524
0.0001195
-0.0506767
0.000103978
-0.045982
8.56589e-05
-0.0417274
6.62694e-05
-0.0378689
4.70674e-05
-0.0343679
2.92928e-05
-0.0311913
1.43998e-05
-0.028309
3.07666e-06
-0.0256923
-6.08388e-06
-0.0233173
-1.64319e-05
-0.0211603
-3.06671e-05
-0.0192035
-4.87298e-05
-0.0174276
-6.81535e-05
-0.0158166
-8.45638e-05
-0.0143546
-9.5492e-05
-0.0130275
-9.88699e-05
-0.011823
-9.47316e-05
-0.0107298
-8.6079e-05
-0.00973727
-7.6494e-05
-0.008836
-6.47249e-05
-0.00801668
-7.1189e-05
-0.00724492
-4.64092e-05
-0.473381
-1.65829e-06
-0.429613
-1.2715e-06
-0.389901
-1.82019e-06
-0.353856
-1.80944e-06
-0.321141
-1.52034e-06
-0.291452
-1.28027e-06
-0.26451
-8.83102e-07
-0.240064
-6.41299e-08
-0.217872
1.43554e-06
-0.197737
3.90943e-06
-0.179462
7.72813e-06
-0.162875
1.33566e-05
-0.14782
2.13006e-05
-0.134154
3.20602e-05
-0.121743
4.59522e-05
-0.110473
6.28246e-05
-0.100237
8.18779e-05
-0.0909405
0.000101456
-0.0824984
0.000119209
-0.074828
0.000132532
-0.0678771
0.000139264
-0.0615668
0.00013841
-0.0558525
0.000130316
-0.0506736
0.000116441
-0.0459769
9.88707e-05
-0.0417213
7.95182e-05
-0.0378625
5.98311e-05
-0.0343616
4.07692e-05
-0.0311855
2.34727e-05
-0.0283041
9.46264e-06
-0.0256886
-6.39876e-07
-0.0233147
-8.63756e-06
-0.0211584
-1.82839e-05
-0.0192018
-3.23514e-05
-0.0174257
-5.05934e-05
-0.0158145
-7.02324e-05
-0.0143525
-8.65956e-05
-0.0130257
-9.729e-05
-0.0118217
-0.000100236
-0.010729
-9.55604e-05
-0.00973681
-8.64904e-05
-0.00883578
-7.66674e-05
-0.00801824
-6.30725e-05
-0.0072585
-5.7596e-05
-0.00654185
-3.50677e-05
-0.47338
-1.60015e-06
-0.429613
-1.18977e-06
-0.389901
-1.55446e-06
-0.353856
-1.62347e-06
-0.321141
-1.38414e-06
-0.291452
-1.20708e-06
-0.264511
-8.6806e-07
-0.240065
-1.76417e-07
-0.217873
1.09613e-06
-0.197739
3.23082e-06
-0.179465
6.58963e-06
-0.162879
1.16203e-05
-0.147826
1.88317e-05
-0.134162
2.87497e-05
-0.121753
4.1786e-05
-0.110485
5.80113e-05
-0.100251
7.6871e-05
-0.0909557
9.70653e-05
-0.0825134
0.000116458
-0.0748413
0.00013244
-0.0678871
0.000142549
-0.0615727
0.000145181
-0.0558542
0.00014012
-0.0506717
0.000128421
-0.0459724
0.000111968
-0.0417154
9.29248e-05
-0.037856
7.30189e-05
-0.0343551
5.33525e-05
-0.0311793
3.45924e-05
-0.0282984
1.78501e-05
-0.0256839
4.7836e-06
-0.0233112
-4.10664e-06
-0.0211561
-1.09724e-05
-0.0192002
-1.9962e-05
-0.0174242
-3.38989e-05
-0.0158128
-5.22781e-05
-0.0143506
-7.2142e-05
-0.0130239
-8.85296e-05
-0.01182
-9.89776e-05
-0.0107277
-0.000101466
-0.00973609
-9.63182e-05
-0.00883532
-8.68691e-05
-0.00801868
-7.62129e-05
-0.00726665
-5.48103e-05
-0.0065578
-4.15611e-05
-0.00590107
-2.43022e-05
-0.47338
-1.51552e-06
-0.429613
-1.17269e-06
-0.3899
-1.33857e-06
-0.353856
-1.44715e-06
-0.321141
-1.30485e-06
-0.291453
-1.17498e-06
-0.264511
-8.67369e-07
-0.240066
-2.58597e-07
-0.217874
8.38522e-07
-0.19774
2.68475e-06
-0.179467
5.62716e-06
-0.162883
1.01018e-05
-0.147831
1.66057e-05
-0.134169
2.56848e-05
-0.121762
3.78202e-05
-0.110496
5.32387e-05
-0.100265
7.16751e-05
-0.0909709
9.20942e-05
-0.082529
0.00011269
-0.0748557
0.000130945
-0.0678989
0.000144214
-0.0615806
0.000150432
-0.0558578
0.00014872
-0.0506713
0.000139642
-0.0459688
0.000124824
-0.0417098
0.000106376
-0.0378494
8.64012e-05
-0.0343484
6.63559e-05
-0.0311729
4.69576e-05
-0.0282925
2.86129e-05
-0.0256785
1.2477e-05
-0.0233068
3.74267e-07
-0.0211529
-7.26387e-06
-0.0191981
-1.30045e-05
-0.0174227
-2.13694e-05
-0.0158115
-3.52083e-05
-0.0143491
-5.38146e-05
-0.0130221
-7.39073e-05
-0.0118183
-9.0272e-05
-0.0107262
-0.000100509
-0.00973499
-0.000102599
-0.00883467
-9.69924e-05
-0.00801824
-8.72502e-05
-0.00727232
-7.04913e-05
-0.00656973
-4.28342e-05
-0.00591676
-2.58728e-05
-0.00532049
-1.48966e-05
-0.473379
-1.38799e-06
-0.429614
-1.17141e-06
-0.389901
-1.1947e-06
-0.353856
-1.29962e-06
-0.321142
-1.26182e-06
-0.291453
-1.16652e-06
-0.264511
-8.80918e-07
-0.240066
-3.31384e-07
-0.217875
6.30815e-07
-0.197742
2.24091e-06
-0.17947
4.81871e-06
-0.162886
8.78338e-06
-0.147835
1.4626e-05
-0.134175
2.28851e-05
-0.12177
3.40977e-05
-0.110507
4.86163e-05
-0.100278
6.63928e-05
-0.0909859
8.67342e-05
-0.082545
0.000108083
-0.0748712
0.00012818
-0.0679122
0.000144306
-0.0615904
0.000154036
-0.0558632
0.000155922
-0.0506724
0.000149881
-0.0459663
0.000137174
-0.0417048
0.000119809
-0.037843
9.99594e-05
-0.0343416
7.95496e-05
-0.0311663
5.97084e-05
-0.0282863
4.07559e-05
-0.0256728
2.28803e-05
-0.0233017
7.35559e-06
-0.0211488
-3.76542e-06
-0.0191952
-1.0192e-05
-0.0174209
-1.48542e-05
-0.0158102
-2.26455e-05
-0.0143479
-3.64174e-05
-0.0130207
-5.52007e-05
-0.0118167
-7.5528e-05
-0.0107247
-9.1923e-05
-0.00973363
-0.000101929
-0.00883369
-0.000103578
-0.00801758
-9.76937e-05
-0.00727471
-8.47906e-05
-0.00658105
-5.91705e-05
-0.00592938
-3.01301e-05
-0.00533455
-1.17368e-05
-0.00479633
-7.05294e-06
-0.473379
-1.23239e-06
-0.429614
-1.16075e-06
-0.3899
-1.12539e-06
-0.353856
-1.19573e-06
-0.321142
-1.23623e-06
-0.291453
-1.162e-06
-0.264511
-8.99406e-07
-0.240067
-4.0184e-07
-0.217876
4.52573e-07
-0.197743
1.86673e-06
-0.179471
4.13674e-06
-0.162889
7.64507e-06
-0.14784
1.2873e-05
-0.134181
2.03585e-05
-0.121778
3.06488e-05
-0.110517
4.4206e-05
-0.100291
6.1167e-05
-0.0910007
8.11098e-05
-0.0825611
0.000102847
-0.0748875
0.00012431
-0.0679269
0.000142915
-0.0616021
0.000155978
-0.0558708
0.000161543
-0.0506754
0.000158919
-0.0459653
0.000148805
-0.0417006
0.000132999
-0.0378369
0.000113696
-0.0343346
9.29877e-05
-0.0311593
7.25629e-05
-0.0282797
5.3196e-05
-0.0256668
3.48127e-05
-0.0232962
1.74347e-05
-0.0211439
2.52613e-06
-0.0191913
-7.62334e-06
-0.0174182
-1.28258e-05
-0.0158086
-1.64376e-05
-0.0143468
-2.36931e-05
-0.0130197
-3.7426e-05
-0.0118154
-5.64662e-05
-0.0107232
-7.70185e-05
-0.00973218
-9.34219e-05
-0.00883247
-0.000103208
-0.00801667
-0.000104542
-0.00727502
-9.74076e-05
-0.00659012
-7.56718e-05
-0.00594221
-4.62888e-05
-0.00534635
-1.83115e-05
-0.00480819
1.05991e-07
-0.00432426
-8.30707e-07
-0.473378
-1.06548e-06
-0.429614
-1.11791e-06
-0.389901
-1.12178e-06
-0.353856
-1.14179e-06
-0.321142
-1.21512e-06
-0.291453
-1.14658e-06
-0.264512
-9.11869e-07
-0.240067
-4.67762e-07
-0.217877
2.92108e-07
-0.197744
1.54393e-06
-0.179473
3.54727e-06
-0.162891
6.66237e-06
-0.147843
1.1329e-05
-0.134186
1.80847e-05
-0.121785
2.74919e-05
-0.110527
4.00572e-05
-0.100303
5.60872e-05
-0.0910149
7.5403e-05
-0.0825771
9.71239e-05
-0.0749042
0.000119547
-0.0679428
0.00014017
-0.0616154
0.000156283
-0.0558803
0.000165494
-0.0506804
0.000166513
-0.0459658
0.000159464
-0.0416975
0.000145721
-0.0378313
0.000127421
-0.0343277
0.000106775
-0.031152
8.57032e-05
-0.0282728
6.56172e-05
-0.0256606
4.69317e-05
-0.0232906
2.91862e-05
-0.0211388
1.22875e-05
-0.0191868
-2.03656e-06
-0.0174147
-1.12225e-05
-0.0158062
-1.52647e-05
-0.0143454
-1.78778e-05
-0.0130187
-2.46426e-05
-0.0118145
-3.83598e-05
-0.010722
-5.76055e-05
-0.0097308
-7.83952e-05
-0.00883115
-9.48041e-05
-0.00801558
-0.000104342
-0.0072743
-0.000105253
-0.00659632
-9.12336e-05
-0.00595413
-6.37035e-05
-0.00535881
-3.38407e-05
-0.00481847
-7.95749e-06
-0.00433382
9.74926e-06
-0.00389957
3.95158e-06
-0.473378
-9.12924e-07
-0.429614
-1.04684e-06
-0.3899
-1.13952e-06
-0.353856
-1.13358e-06
-0.321142
-1.19114e-06
-0.291453
-1.11622e-06
-0.264512
-9.10786e-07
-0.240068
-5.23633e-07
-0.217877
1.48266e-07
-0.197745
1.25758e-06
-0.179475
3.03572e-06
-0.162893
5.79953e-06
-0.147847