/*--------------------------------*- C++ -*----------------------------------*\
  =========                 |
  \\      /  F ield         | OpenFOAM: The Open Source CFD Toolbox
   \\    /   O peration     | Website:  https://openfoam.org
    \\  /    A nd           | Version:  dev
     \\/     M anipulation  |
\*---------------------------------------------------------------------------*/
FoamFile
{
    version     2.0;
    format      ascii;
    class       volVectorField;
    location    "325";
    object      U;
}
// * * * * * * * * * * * * * * * * * * * * * * * * * * * * * * * * * * * * * //

dimensions      [0 1 -1 0 0 0 0];

internalField   nonuniform List<vector> 
29380
(
(51.0641 -0.00232074 0)
(51.0638 -0.00218533 0)
(51.0604 -0.000437719 0)
(51.0639 -0.00171481 0)
(51.0609 -0.00014381 0)
(51.0665 -0.00158878 0)
(51.0642 -0.00132325 0)
(51.0611 0.000431949 0)
(51.0673 -0.00145202 0)
(51.068 0.000167553 0)
(51.0645 -0.00109024 0)
(51.0612 0.000851828 0)
(51.0674 -0.00129184 0)
(51.068 0.000200628 0)
(51.0721 -0.00140899 0)
(51.0648 -0.00115018 0)
(51.0611 0.00104355 0)
(51.0672 -0.00115006 0)
(51.068 8.3028e-05 0)
(51.0716 -0.00120975 0)
(51.0747 -0.000609305 0)
(51.065 -0.00152256 0)
(51.0611 0.000922446 0)
(51.0669 -0.00102669 0)
(51.068 0.000138119 0)
(51.0714 -0.0010312 0)
(51.0743 -0.000557236 0)
(51.077 -0.00175879 0)
(51.065 -0.00211592 0)
(51.0611 0.000555172 0)
(51.0667 -0.000919498 0)
(51.068 0.000380259 0)
(51.0713 -0.000763303 0)
(51.0739 -0.000435981 0)
(51.0762 -0.00161438 0)
(51.0793 -0.00165233 0)
(51.0649 -0.0027434 0)
(51.0613 0.000130963 0)
(51.0669 -0.000813991 0)
(51.0682 0.000846012 0)
(51.0714 -0.00041732 0)
(51.0736 -0.000114267 0)
(51.0757 -0.00141273 0)
(51.0784 -0.00151861 0)
(51.0812 -0.0025864 0)
(51.0647 -0.00319569 0)
(51.0617 -0.000118988 0)
(51.0674 -0.000706305 0)
(51.0685 0.00147016 0)
(51.0715 1.99367e-05 0)
(51.0734 0.000356338 0)
(51.0753 -0.00101268 0)
(51.0778 -0.00131029 0)
(51.08 -0.00241883 0)
(51.0831 -0.00283588 0)
(51.0647 -0.00332469 0)
(51.0622 -1.97849e-05 0)
(51.0682 -0.000619702 0)
(51.0689 0.00208762 0)
(51.0717 0.000528476 0)
(51.0733 0.00096174 0)
(51.075 -0.000458975 0)
(51.0772 -0.000875835 0)
(51.0793 -0.00217888 0)
(51.0817 -0.00268048 0)
(51.0845 -0.00361683 0)
(51.0648 -0.0031254 0)
(51.0628 0.000444642 0)
(51.0691 -0.000597219 0)
(51.0694 0.00249154 0)
(51.0719 0.00104875 0)
(51.0733 0.00163637 0)
(51.0748 0.000242988 0)
(51.0767 -0.000261833 0)
(51.0784 -0.00169956 0)
(51.0808 -0.00245418 0)
(51.083 -0.00346681 0)
(51.0859 -0.00403361 0)
(51.065 -0.00275707 0)
(51.0632 0.00110415 0)
(51.0698 -0.000689854 0)
(51.0699 0.00250822 0)
(51.0721 0.00148566 0)
(51.0735 0.00229632 0)
(51.0747 0.00104949 0)
(51.0763 0.000532738 0)
(51.0778 -0.00101832 0)
(51.0798 -0.0019749 0)
(51.082 -0.00325261 0)
(51.0842 -0.00389973 0)
(51.087 -0.00469545 0)
(51.0653 -0.00250577 0)
(51.0634 0.00164513 0)
(51.0702 -0.000925235 0)
(51.0704 0.0020916 0)
(51.0724 0.00174287 0)
(51.0738 0.00285365 0)
(51.0748 0.00189693 0)
(51.0761 0.00147025 0)
(51.0772 -0.000122335 0)
(51.0789 -0.00127195 0)
(51.0808 -0.00277878 0)
(51.0831 -0.00371974 0)
(51.0852 -0.0045751 0)
(51.088 -0.00514494 0)
(51.0656 -0.00267503 0)
(51.0635 0.00174335 0)
(51.0702 -0.00128973 0)
(51.0709 0.00136031 0)
(51.0727 0.0017594 0)
(51.0742 0.00324705 0)
(51.075 0.00271252 0)
(51.0761 0.00249816 0)
(51.0768 0.000964814 0)
(51.0781 -0.000318483 0)
(51.0797 -0.00206194 0)
(51.0817 -0.00328494 0)
(51.084 -0.00443503 0)
(51.0862 -0.00504752 0)
(51.0888 -0.00570058 0)
(51.0656 -0.00345903 0)
(51.0634 0.00120783 0)
(51.07 -0.00171896 0)
(51.0713 0.000580811 0)
(51.0732 0.00154878 0)
(51.0747 0.00346231 0)
(51.0754 0.00343311 0)
(51.0763 0.00355001 0)
(51.0766 0.00220003 0)
(51.0775 0.000873156 0)
(51.0787 -0.00106006 0)
(51.0805 -0.00259633 0)
(51.0825 -0.00405525 0)
(51.0849 -0.00496098 0)
(51.087 -0.00562492 0)
(51.0895 -0.00610977 0)
(51.0655 -0.00483261 0)
(51.0633 9.87989e-05 0)
(51.0697 -0.00211816 0)
(51.0717 6.33945e-05 0)
(51.074 0.00120253 0)
(51.0754 0.00353985 0)
(51.0761 0.00402435 0)
(51.0767 0.00456326 0)
(51.0766 0.00352293 0)
(51.0771 0.00227038 0)
(51.0778 0.000227273 0)
(51.0792 -0.00159498 0)
(51.081 -0.00341845 0)
(51.0832 -0.00465914 0)
(51.0856 -0.00559696 0)
(51.0877 -0.00606306 0)
(51.0901 -0.00656277 0)
(51.0652 -0.00652417 0)
(51.0633 -0.00126629 0)
(51.0697 -0.0023954 0)
(51.0722 3.66774e-05 0)
(51.0748 0.000870343 0)
(51.0763 0.00355911 0)
(51.0769 0.00448736 0)
(51.0773 0.00548863 0)
(51.0769 0.00486476 0)
(51.077 0.00381787 0)
(51.0771 0.00177768 0)
(51.0781 -0.000264443 0)
(51.0795 -0.00244757 0)
(51.0816 -0.00410323 0)
(51.0838 -0.00538744 0)
(51.0863 -0.00610083 0)
(51.0883 -0.00654458 0)
(51.0906 -0.00690828 0)
(51.0648 -0.00807766 0)
(51.0636 -0.00240833 0)
(51.0699 -0.002505 0)
(51.0726 0.000525829 0)
(51.0757 0.000700646 0)
(51.0772 0.00360834 0)
(51.0779 0.00485475 0)
(51.0782 0.00630187 0)
(51.0775 0.00616418 0)
(51.0771 0.00544923 0)
(51.0767 0.00354319 0)
(51.0771 0.00138642 0)
(51.0781 -0.00110804 0)
(51.0798 -0.00319783 0)
(51.082 -0.00493325 0)
(51.0844 -0.00600032 0)
(51.0868 -0.00664695 0)
(51.0888 -0.00692353 0)
(51.091 -0.00726246 0)
(51.0645 -0.00900825 0)
(51.064 -0.00288017 0)
(51.0706 -0.00247362 0)
(51.073 0.00131867 0)
(51.0765 0.000782272 0)
(51.0783 0.00374548 0)
(51.0791 0.00517143 0)
(51.0792 0.00700091 0)
(51.0783 0.00737397 0)
(51.0775 0.00709707 0)
(51.0766 0.00546069 0)
(51.0764 0.0033205 0)
(51.0768 0.000607229 0)
(51.0781 -0.0018888 0)
(51.0801 -0.00412011 0)
(51.0824 -0.00566934 0)
(51.0849 -0.00666503 0)
(51.0874 -0.00708905 0)
(51.0892 -0.00731417 0)
(51.0914 -0.00753859 0)
(51.0643 -0.00898181 0)
(51.0646 -0.00245619 0)
(51.0714 -0.00240363 0)
(51.0735 0.00201889 0)
(51.0772 0.00109171 0)
(51.0793 0.00396959 0)
(51.0802 0.00547206 0)
(51.0804 0.00760105 0)
(51.0794 0.00846999 0)
(51.0782 0.00870484 0)
(51.0767 0.00746288 0)
(51.0759 0.00548249 0)
(51.0757 0.00267437 0)
(51.0765 -0.000153098 0)
(51.0781 -0.00287368 0)
(51.0803 -0.00497536 0)
(51.0828 -0.00647151 0)
(51.0854 -0.00723541 0)
(51.0878 -0.00753584 0)
(51.0896 -0.00763405 0)
(51.0916 -0.00780425 0)
(51.0643 -0.00796761 0)
(51.0652 -0.00126121 0)
(51.0721 -0.00244048 0)
(51.074 0.00219851 0)
(51.0777 0.00149002 0)
(51.0802 0.00421049 0)
(51.0813 0.0057594 0)
(51.0817 0.00811879 0)
(51.0806 0.00944524 0)
(51.0792 0.0102321 0)
(51.0773 0.00948877 0)
(51.0758 0.00780887 0)
(51.0749 0.00504768 0)
(51.0751 0.00199901 0)
(51.0761 -0.00115462 0)
(51.078 -0.00382237 0)
(51.0804 -0.00591654 0)
(51.0832 -0.00719265 0)
(51.0858 -0.0078154 0)
(51.0882 -0.00790436 0)
(51.0899 -0.00795025 0)
(51.0918 -0.00801078 0)
(51.0644 -0.00628568 0)
(51.0656 0.000248767 0)
(51.0726 -0.00272157 0)
(51.0744 0.00156891 0)
(51.0781 0.00175681 0)
(51.081 0.00434783 0)
(51.0824 0.00599687 0)
(51.083 0.00855984 0)
(51.082 0.0103049 0)
(51.0805 0.0116554 0)
(51.0782 0.0114886 0)
(51.0761 0.0102377 0)
(51.0745 0.00767007 0)
(51.0739 0.00453281 0)
(51.0743 0.0010402 0)
(51.0757 -0.00215549 0)
(51.0779 -0.00488129 0)
(51.0806 -0.00679562 0)
(51.0835 -0.00793079 0)
(51.0862 -0.0083216 0)
(51.0885 -0.00825837 0)
(51.0901 -0.0082166 0)
(51.0918 -0.00820069 0)
(51.0646 -0.00453098 0)
(51.0658 0.00143471 0)
(51.0727 -0.00331722 0)
(51.0748 0.000121969 0)
(51.0784 0.00167295 0)
(51.0817 0.00425062 0)
(51.0834 0.00611614 0)
(51.0843 0.00890766 0)
(51.0836 0.0110502 0)
(51.082 0.0129604 0)
(51.0794 0.0134248 0)
(51.0768 0.0127141 0)
(51.0744 0.0104821 0)
(51.073 0.00739903 0)
(51.0727 0.00368595 0)
(51.0735 4.05188e-05 0)
(51.0753 -0.00329496 0)
(51.0778 -0.00590014 0)
(51.0807 -0.00770377 0)
(51.0838 -0.00860037 0)
(51.0865 -0.00881568 0)
(51.0888 -0.00855033 0)
(51.0902 -0.0084762 0)
(51.0918 -0.00834674 0)
(51.0648 -0.00338514 0)
(51.0657 0.00172152 0)
(51.0724 -0.00419281 0)
(51.0752 -0.00184247 0)
(51.0787 0.00110349 0)
(51.0823 0.0038294 0)
(51.0843 0.00604174 0)
(51.0856 0.00912522 0)
(51.0851 0.011671 0)
(51.0837 0.0141337 0)
(51.0809 0.0152656 0)
(51.0778 0.0151893 0)
(51.0748 0.0134266 0)
(51.0726 0.0105438 0)
(51.0714 0.00674194 0)
(51.0715 0.00274961 0)
(51.0727 -0.00113124 0)
(51.0749 -0.00441993 0)
(51.0777 -0.0069637 0)
(51.0808 -0.00855284 0)
(51.084 -0.00926015 0)
(51.0868 -0.00924893 0)
(51.0889 -0.0088207 0)
(51.0902 -0.00870371 0)
(51.0917 -0.00847362 0)
(51.0648 -0.00338499 0)
(51.0655 0.000826853 0)
(51.0719 -0.00520445 0)
(51.0754 -0.00380127 0)
(51.0792 6.75448e-05 0)
(51.0829 0.00307724 0)
(51.0851 0.00572157 0)
(51.0868 0.00916437 0)
(51.0868 0.0121384 0)
(51.0855 0.015152 0)
(51.0828 0.0169784 0)
(51.0793 0.0176166 0)
(51.0756 0.0164495 0)
(51.0726 0.013914 0)
(51.0705 0.0101618 0)
(51.0698 0.00593744 0)
(51.0703 0.00159977 0)
(51.0719 -0.00231843 0)
(51.0744 -0.00560794 0)
(51.0775 -0.00797962 0)
(51.0809 -0.00939772 0)
(51.0842 -0.00985956 0)
(51.0869 -0.00965881 0)
(51.0889 -0.00904445 0)
(51.0901 -0.00892299 0)
(51.0914 -0.00856691 0)
(51.0646 -0.00472185 0)
(51.0651 -0.00110584 0)
(51.0713 -0.00613536 0)
(51.0757 -0.00519635 0)
(51.0797 -0.00125186 0)
(51.0834 0.00208769 0)
(51.086 0.00515463 0)
(51.088 0.00898591 0)
(51.0884 0.0124123 0)
(51.0875 0.0159803 0)
(51.0848 0.0185219 0)
(51.0812 0.0199448 0)
(51.0769 0.019494 0)
(51.073 0.0174562 0)
(51.0701 0.0138998 0)
(51.0684 0.00956507 0)
(51.0681 0.00486835 0)
(51.0691 0.000398621 0)
(51.0712 -0.00359012 0)
(51.074 -0.0067616 0)
(51.0774 -0.00899883 0)
(51.081 -0.0101867 0)
(51.0843 -0.0104321 0)
(51.087 -0.0100201 0)
(51.0889 -0.00924484 0)
(51.0898 -0.00911979 0)
(51.091 -0.0086427 0)
(51.0643 -0.00716123 0)
(51.0648 -0.00354705 0)
(51.0709 -0.00676122 0)
(51.0758 -0.00563494 0)
(51.0803 -0.00255223 0)
(51.0839 0.00103543 0)
(51.0868 0.00440185 0)
(51.0892 0.00857869 0)
(51.09 0.0124536 0)
(51.0895 0.0165744 0)
(51.0871 0.0198463 0)
(51.0834 0.0221143 0)
(51.0787 0.0224966 0)
(51.074 0.0211121 0)
(51.0701 0.0179105 0)
(51.0675 0.0135969 0)
(51.0663 0.00864042 0)
(51.0666 0.00370133 0)
(51.068 -0.0009149 0)
(51.0705 -0.00484313 0)
(51.0736 -0.00792628 0)
(51.0773 -0.00996816 0)
(51.081 -0.0109483 0)
(51.0843 -0.0109516 0)
(51.087 -0.0103551 0)
(51.0886 -0.00940832 0)
(51.0895 -0.00930947 0)
(51.0905 -0.00869351 0)
(51.0639 -0.0101006 0)
(51.0647 -0.00576714 0)
(51.0708 -0.00692549 0)
(51.076 -0.00504012 0)
(51.0808 -0.00351084 0)
(51.0845 0.000127127 0)
(51.0876 0.00357642 0)
(51.0904 0.00797389 0)
(51.0916 0.012244 0)
(51.0915 0.0168952 0)
(51.0894 0.0208981 0)
(51.0858 0.0240583 0)
(51.0809 0.0253828 0)
(51.0756 0.0248117 0)
(51.0707 0.0221421 0)
(51.067 0.0180007 0)
(51.0648 0.0128896 0)
(51.0642 0.00755663 0)
(51.065 0.00238477 0)
(51.067 -0.00222965 0)
(51.0698 -0.00611529 0)
(51.0732 -0.00904757 0)
(51.0771 -0.0109124 0)
(51.0809 -0.0116551 0)
(51.0843 -0.0114385 0)
(51.0869 -0.0106499 0)
(51.0883 -0.00955071 0)
(51.0889 -0.00948344 0)
(51.0898 -0.00872958 0)
(51.0635 -0.012764 0)
(51.0647 -0.0071165 0)
(51.0709 -0.00659394 0)
(51.0762 -0.00367473 0)
(51.0813 -0.00389354 0)
(51.085 -0.000466104 0)
(51.0884 0.00281214 0)
(51.0915 0.00724402 0)
(51.0931 0.0117992 0)
(51.0935 0.0169231 0)
(51.0919 0.0216325 0)
(51.0885 0.0257096 0)
(51.0834 0.0280701 0)
(51.0776 0.0284714 0)
(51.0718 0.0265284 0)
(51.067 0.0227391 0)
(51.0637 0.0175995 0)
(51.0622 0.0119451 0)
(51.0623 0.00627163 0)
(51.0636 0.00103742 0)
(51.066 -0.00357497 0)
(51.0691 -0.00735011 0)
(51.0728 -0.0101465 0)
(51.0768 -0.0118022 0)
(51.0808 -0.0123251 0)
(51.0842 -0.011879 0)
(51.0866 -0.0109189 0)
(51.0878 -0.00966449 0)
(51.0882 -0.00965043 0)
(51.089 -0.00874691 0)
(51.0631 -0.014451 0)
(51.065 -0.00726382 0)
(51.0713 -0.00587728 0)
(51.0764 -0.00204295 0)
(51.0817 -0.00364474 0)
(51.0856 -0.000667547 0)
(51.0892 0.00222225 0)
(51.0925 0.00648747 0)
(51.0945 0.011175 0)
(51.0954 0.0166721 0)
(51.0943 0.0220274 0)
(51.0913 0.0270121 0)
(51.0863 0.0304749 0)
(51.0801 0.0319949 0)
(51.0735 0.0309838 0)
(51.0676 0.0277594 0)
(51.0632 0.0227544 0)
(51.0605 0.0168661 0)
(51.0597 0.010728 0)
(51.0604 0.0049113 0)
(51.0623 -0.000358509 0)
(51.065 -0.00488876 0)
(51.0684 -0.00856443 0)
(51.0724 -0.0111924 0)
(51.0765 -0.0126532 0)
(51.0806 -0.0129439 0)
(51.0839 -0.0122857 0)
(51.0862 -0.0111547 0)
(51.0871 -0.00976012 0)
(51.0874 -0.00980422 0)
(51.088 -0.00875316 0)
(51.0629 -0.0147628 0)
(51.0653 -0.006324 0)
(51.0718 -0.00500231 0)
(51.0766 -0.000700097 0)
(51.0819 -0.00291188 0)
(51.0861 -0.000526935 0)
(51.0898 0.00186084 0)
(51.0935 0.0058005 0)
(51.0959 0.0104559 0)
(51.0973 0.0161929 0)
(51.0968 0.0220937 0)
(51.0942 0.0279344 0)
(51.0895 0.0325245 0)
(51.0831 0.0352821 0)
(51.0758 0.0354051 0)
(51.0689 0.0329844 0)
(51.0632 0.0283233 0)
(51.0593 0.0223289 0)
(51.0575 0.0157674 0)
(51.0574 0.00937075 0)
(51.0587 0.00347103 0)
(51.061 -0.0017334 0)
(51.064 -0.00618375 0)
(51.0677 -0.0097263 0)
(51.0719 -0.0121979 0)
(51.0762 -0.0134506 0)
(51.0803 -0.0135219 0)
(51.0835 -0.0126509 0)
(51.0856 -0.0113672 0)
(51.0863 -0.00983274 0)
(51.0864 -0.00995153 0)
(51.0869 -0.00874587 0)
(51.0628 -0.0137146 0)
(51.0658 -0.00479448 0)
(51.0722 -0.00425128 0)
(51.0768 -5.91221e-05 0)
(51.082 -0.00200463 0)
(51.0865 -0.000208075 0)
(51.0904 0.00170308 0)
(51.0943 0.00524741 0)
(51.0971 0.00973455 0)
(51.0991 0.0155651 0)
(51.0991 0.0218779 0)
(51.0972 0.0284777 0)
(51.0929 0.0341692 0)
(51.0865 0.0382399 0)
(51.0787 0.0396777 0)
(51.0708 0.0383119 0)
(51.0638 0.0342482 0)
(51.0586 0.0283329 0)
(51.0555 0.0214261 0)
(51.0546 0.0144394 0)
(51.0552 0.00788131 0)
(51.0571 0.00203035 0)
(51.0598 -0.00309294 0)
(51.0631 -0.00742442 0)
(51.067 -0.010845 0)
(51.0713 -0.0131479 0)
(51.0758 -0.0142028 0)
(51.0799 -0.0140512 0)
(51.083 -0.0129849 0)
(51.0849 -0.011552 0)
(51.0854 -0.00989138 0)
(51.0853 -0.0100876 0)
(51.0856 -0.00873035 0)
(51.0627 -0.0117096 0)
(51.0661 -0.00334652 0)
(51.0724 -0.0038803 0)
(51.0769 -0.000257926 0)
(51.082 -0.00129144 0)
(51.0867 6.28888e-05 0)
(51.0909 0.00165154 0)
(51.0951 0.00483876 0)
(51.0983 0.00908335 0)
(51.1008 0.0148769 0)
(51.1015 0.0214532 0)
(51.1002 0.028678 0)
(51.0964 0.0353912 0)
(51.0902 0.0407955 0)
(51.0822 0.0436879 0)
(51.0734 0.0436201 0)
(51.0651 0.0404392 0)
(51.0585 0.0348491 0)
(51.054 0.027739 0)
(51.052 0.0201805 0)
(51.0519 0.0129014 0)
(51.0532 0.00635202 0)
(51.0556 0.000593485 0)
(51.0586 -0.00439687 0)
(51.0622 -0.00861727 0)
(51.0662 -0.0119055 0)
(51.0707 -0.0140493 0)
(51.0753 -0.0149013 0)
(51.0793 -0.014541 0)
(51.0823 -0.0132834 0)
(51.084 -0.0117172 0)
(51.0843 -0.00993213 0)
(51.0841 -0.0102173 0)
(51.0842 -0.00870488 0)
(51.0627 -0.00938377 0)
(51.0664 -0.0025574 0)
(51.0725 -0.00404305 0)
(51.077 -0.00115253 0)
(51.082 -0.00107879 0)
(51.0869 7.32626e-05 0)
(51.0912 0.00156936 0)
(51.0957 0.00452794 0)
(51.0993 0.00853264 0)
(51.1023 0.0142009 0)
(51.1037 0.0209014 0)
(51.1032 0.0285972 0)
(51.1 0.0362065 0)
(51.0943 0.0429049 0)
(51.0862 0.0473358 0)
(51.0767 0.0487789 0)
(51.0673 0.0467774 0)
(51.0591 0.0418108 0)
(51.0531 0.034714 0)
(51.0497 0.0266687 0)
(51.0486 0.0186208 0)
(51.0494 0.0112593 0)
(51.0514 0.00479853 0)
(51.0542 -0.000792431 0)
(51.0575 -0.0056468 0)
(51.0612 -0.00974562 0)
(51.0654 -0.0129136 0)
(51.07 -0.0148934 0)
(51.0747 -0.015554 0)
(51.0787 -0.014987 0)
(51.0815 -0.0135545 0)
(51.083 -0.0118596 0)
(51.083 -0.00996278 0)
(51.0828 -0.010337 0)
(51.0827 -0.00867383 0)
(51.0626 -0.00738332 0)
(51.0666 -0.00268549 0)
(51.0725 -0.00474895 0)
(51.0771 -0.00241062 0)
(51.082 -0.00150855 0)
(51.0871 -0.000303957 0)
(51.0915 0.00132709 0)
(51.0963 0.00422767 0)
(51.1003 0.00806172 0)
(51.1038 0.0135739 0)
(51.1058 0.0202916 0)
(51.1061 0.0283073 0)
(51.1037 0.0366586 0)
(51.0985 0.0445572 0)
(51.0906 0.0505457 0)
(51.0807 0.0536627 0)
(51.0702 0.0531252 0)
(51.0605 0.0491144 0)
(51.0528 0.0423178 0)
(51.0478 0.0339546 0)
(51.0455 0.0251549 0)
(51.0455 0.0168643 0)
(51.0472 0.009542 0)
(51.0498 0.00327847 0)
(51.0529 -0.00212181 0)
(51.0564 -0.00682321 0)
(51.0602 -0.0108146 0)
(51.0646 -0.0138617 0)
(51.0693 -0.0156864 0)
(51.0739 -0.0161565 0)
(51.0779 -0.0153972 0)
(51.0806 -0.0137956 0)
(51.0819 -0.0119863 0)
(51.0817 -0.00998055 0)
(51.0814 -0.0104508 0)
(51.0812 -0.00863615 0)
(51.0625 -0.00616898 0)
(51.0666 -0.00358394 0)
(51.0725 -0.00586086 0)
(51.0771 -0.003669 0)
(51.0821 -0.00251985 0)
(51.0871 -0.00106486 0)
(51.0918 0.00084907 0)
(51.0968 0.00384181 0)
(51.1011 0.00760882 0)
(51.1051 0.0129879 0)
(51.1078 0.0196625 0)
(51.1088 0.0278721 0)
(51.1073 0.036805 0)
(51.1029 0.0457698 0)
(51.0953 0.0532724 0)
(51.0853 0.0581627 0)
(51.0739 0.0593382 0)
(51.0628 0.0566264 0)
(51.0533 0.0504727 0)
(51.0465 0.0420449 0)
(51.0427 0.0326021 0)
(51.0416 0.0233263 0)
(51.0427 0.0149562 0)
(51.0451 0.00782009 0)
(51.0482 0.00180587 0)
(51.0516 -0.00337057 0)
(51.0552 -0.0079293 0)
(51.0592 -0.0118176 0)
(51.0636 -0.0147538 0)
(51.0684 -0.0164243 0)
(51.0731 -0.0167159 0)
(51.077 -0.0157694 0)
(51.0795 -0.014014 0)
(51.0806 -0.0120957 0)
(51.0803 -0.00999209 0)
(51.0799 -0.0105559 0)
(51.0796 -0.00859527 0)
(51.0623 -0.00590037 0)
(51.0665 -0.00481443 0)
(51.0724 -0.00713319 0)
(51.0772 -0.00467851 0)
(51.0821 -0.00387625 0)
(51.0872 -0.00208077 0)
(51.092 0.000141086 0)
(51.0972 0.0033012 0)
(51.1018 0.00709554 0)
(51.1063 0.0123973 0)
(51.1096 0.0190151 0)
(51.1114 0.0273314 0)
(51.1108 0.0367014 0)
(51.1072 0.0465781 0)
(51.1003 0.0554999 0)
(51.0904 0.0621956 0)
(51.0785 0.0652782 0)
(51.066 0.0641948 0)
(51.0547 0.0590623 0)
(51.0459 0.0508967 0)
(51.0403 0.0410131 0)
(51.0379 0.0307922 0)
(51.0381 0.0212432 0)
(51.0402 0.0129808 0)
(51.0433 0.00611852 0)
(51.0468 0.000413095 0)
(51.0504 -0.0045379 0)
(51.0541 -0.00895902 0)
(51.0581 -0.012758 0)
(51.0626 -0.0155875 0)
(51.0675 -0.0171124 0)
(51.0721 -0.0172301 0)
(51.076 -0.0161109 0)
(51.0783 -0.0142085 0)
(51.0793 -0.0121925 0)
(51.0789 -0.00999395 0)
(51.0784 -0.0106557 0)
(51.0779 -0.00854991 0)
(51.0622 -0.00645056 0)
(51.0664 -0.00583511 0)
(51.0724 -0.0082924 0)
(51.0772 -0.00537461 0)
(51.0821 -0.00525385 0)
(51.0873 -0.00314204 0)
(51.0922 -0.000713405 0)
(51.0976 0.00259053 0)
(51.1025 0.00645838 0)
(51.1073 0.0117402 0)
(51.1112 0.018319 0)
(51.1138 0.0266956 0)
(51.1142 0.0363885 0)
(51.1116 0.0470231 0)
(51.1055 0.0572345 0)
(51.096 0.0657055 0)
(51.0837 0.0708238 0)
(51.0702 0.0716607 0)
(51.0571 0.0679408 0)
(51.0462 0.0604219 0)
(51.0386 0.0503844 0)
(51.0344 0.0393587 0)
(51.0335 0.0286016 0)
(51.0349 0.0190079 0)
(51.0379 0.0109779 0)
(51.0416 0.00448004 0)
(51.0454 -0.000893945 0)
(51.0491 -0.00561694 0)
(51.0529 -0.00991491 0)
(51.0569 -0.0136349 0)
(51.0615 -0.0163664 0)
(51.0664 -0.0177497 0)
(51.0711 -0.0177057 0)
(51.0748 -0.0164203 0)
(51.0771 -0.0143834 0)
(51.0779 -0.0122746 0)
(51.0774 -0.00999195 0)
(51.077 -0.010747 0)
(51.0764 -0.00850444 0)
(51.062 -0.00750356 0)
(51.0663 -0.00624526 0)
(51.0724 -0.0091098 0)
(51.0772 -0.00584675 0)
(51.0822 -0.00635363 0)
(51.0874 -0.00403234 0)
(51.0925 -0.00158211 0)
(51.0979 0.00175364 0)
(51.1031 0.0056748 0)
(51.1083 0.0109651 0)
(51.1127 0.0175304 0)
(51.1161 0.0259503 0)
(51.1174 0.0358863 0)
(51.1159 0.04714 0)
(51.1108 0.0584956 0)
(51.1019 0.0686613 0)
(51.0896 0.0758755 0)
(51.0753 0.0788695 0)
(51.0606 0.0769411 0)
(51.0476 0.0704942 0)
(51.0377 0.0606639 0)
(51.0315 0.0490626 0)
(51.029 0.037172 0)
(51.0294 0.0261508 0)
(51.032 0.0166752 0)
(51.0359 0.00900112 0)
(51.0401 0.00291816 0)
(51.0441 -0.00210343 0)
(51.0479 -0.00660857 0)
(51.0516 -0.010798 0)
(51.0557 -0.0144513 0)
(51.0602 -0.0170906 0)
(51.0652 -0.0183409 0)
(51.0699 -0.0181414 0)
(51.0736 -0.0167028 0)
(51.0757 -0.0145377 0)
(51.0766 -0.0123466 0)
(51.0761 -0.00998335 0)
(51.0755 -0.010835 0)
(51.0751 -0.00845283 0)
(51.0619 -0.008714 0)
(51.0662 -0.00596698 0)
(51.0724 -0.00945071 0)
(51.0772 -0.00625733 0)
(51.0822 -0.00698882 0)
(51.0875 -0.00460603 0)
(51.0927 -0.00233087 0)
(51.0983 0.0008789 0)
(51.1036 0.00477278 0)
(51.1091 0.0100546 0)
(51.1141 0.0166145 0)
(51.1181 0.0250712 0)
(51.1203 0.0351966 0)
(51.1199 0.046953 0)
(51.116 0.0593062 0)
(51.108 0.0710511 0)
(51.0961 0.0803575 0)
(51.0812 0.0856795 0)
(51.0652 0.0858876 0)
(51.0502 0.0809551 0)
(51.0378 0.0717567 0)
(51.0293 0.0598907 0)
(51.0248 0.0470281 0)
(51.0239 0.0345927 0)
(51.0257 0.0235156 0)
(51.0294 0.0143162 0)
(51.034 0.00707597 0)
(51.0386 0.00145257 0)
(51.0428 -0.00321436 0)
(51.0466 -0.0075143 0)
(51.0503 -0.011611 0)
(51.0543 -0.0152089 0)
(51.0589 -0.0177629 0)
(51.0639 -0.0188858 0)
(51.0687 -0.0185426 0)
(51.0724 -0.0169578 0)
(51.0744 -0.0146754 0)
(51.0753 -0.0124072 0)
(51.0748 -0.00997501 0)
(51.0742 -0.0109169 0)
(51.0741 -0.00842016 0)
(51.0618 -0.00981168 0)
(51.0662 -0.00519751 0)
(51.0724 -0.00932118 0)
(51.0773 -0.00670977 0)
(51.0823 -0.00713058 0)
(51.0877 -0.00482474 0)
(51.0929 -0.00287287 0)
(51.0985 6.76712e-05 0)
(51.1041 0.00382228 0)
(51.1099 0.00903417 0)
(51.1153 0.0155651 0)
(51.12 0.0240417 0)
(51.1231 0.0343146 0)
(51.1238 0.0464768 0)
(51.1211 0.059688 0)
(51.1142 0.0728756 0)
(51.1029 0.0842165 0)
(51.088 0.0919661 0)
(51.0709 0.0946027 0)
(51.0539 0.0916224 0)
(51.0391 0.0835285 0)
(51.0279 0.071788 0)
(51.0212 0.0581935 0)
(51.0185 0.0444373 0)
(51.0192 0.0317207 0)
(51.0224 0.0207862 0)
(51.0271 0.0119685 0)
(51.0323 0.00523147 0)
(51.0372 8.86217e-05 0)
(51.0415 -0.00422488 0)
(51.0452 -0.00833706 0)
(51.0488 -0.0123574 0)
(51.0528 -0.0159094 0)
(51.0575 -0.0183843 0)
(51.0626 -0.019389 0)
(51.0674 -0.0189092 0)
(51.0711 -0.01719 0)
(51.0731 -0.0147958 0)
(51.074 -0.0124616 0)
(51.0735 -0.00995984 0)
(51.0735 -0.0110026 0)
(51.0628 -0.00839749 0)
(51.0617 -0.0106356 0)
(51.0662 -0.0043318 0)
(51.0723 -0.00882112 0)
(51.0774 -0.00718632 0)
(51.0823 -0.00688673 0)
(51.0878 -0.00476491 0)
(51.093 -0.00318997 0)
(51.0988 -0.000602709 0)
(51.1045 0.00291101 0)
(51.1106 0.00796632 0)
(51.1164 0.0144119 0)
(51.1217 0.0228689 0)
(51.1257 0.0332421 0)
(51.1275 0.0457241 0)
(51.126 0.0596619 0)
(51.1204 0.0741435 0)
(51.1101 0.0874179 0)
(51.0954 0.0976266 0)
(51.0777 0.102916 0)
(51.0589 0.102297 0)
(51.0416 0.0958089 0)
(51.0277 0.0846577 0)
(51.0183 0.0706569 0)
(51.0135 0.0557386 0)
(51.0127 0.0414148 0)
(51.015 0.0286703 0)
(51.0194 0.0180198 0)
(51.025 0.00967649 0)
(51.0307 0.00348062 0)
(51.0359 -0.00116662 0)
(51.0402 -0.00513849 0)
(51.0438 -0.00908177 0)
(51.0473 -0.0130394 0)
(51.0513 -0.0165564 0)
(51.056 -0.0189588 0)
(51.0613 -0.019852 0)
(51.0662 -0.0192458 0)
(51.0698 -0.0173974 0)
(51.0719 -0.0149026 0)
(51.0729 -0.0125044 0)
(51.0725 -0.00995006 0)
(51.0751 -0.0110638 0)
(50.9786 -0.00792752 0)
(51.0617 -0.0111763 0)
(51.0662 -0.00377918 0)
(51.0723 -0.0081215 0)
(51.0774 -0.00756405 0)
(51.0824 -0.00644527 0)
(51.0879 -0.00457769 0)
(51.0932 -0.00333559 0)
(51.099 -0.00110023 0)
(51.1049 0.00211288 0)
(51.1112 0.00692987 0)
(51.1174 0.0132142 0)
(51.1233 0.021588 0)
(51.1281 0.0319991 0)
(51.1309 0.0447151 0)
(51.1308 0.059252 0)
(51.1265 0.0748714 0)
(51.1173 0.0899445 0)
(51.1033 0.102581 0)
(51.0853 0.110673 0)
(51.0652 0.112773 0)
(51.0456 0.108396 0)
(51.0288 0.0983589 0)
(51.0164 0.0843692 0)
(51.0091 0.0685277 0)
(51.0064 0.0526728 0)
(51.0074 0.0381038 0)
(51.0112 0.025524 0)
(51.0167 0.015277 0)
(51.023 0.00745993 0)
(51.0292 0.00183663 0)
(51.0345 -0.00231464 0)
(51.0388 -0.00595881 0)
(51.0423 -0.00975219 0)
(51.0457 -0.013663 0)
(51.0497 -0.0171525 0)
(51.0546 -0.0194888 0)
(51.06 -0.0202787 0)
(51.065 -0.0195509 0)
(51.0687 -0.0175849 0)
(51.0709 -0.0149925 0)
(51.072 -0.0125469 0)
(51.0721 -0.00995655 0)
(51.0538 -0.010714 0)
(50.7802 -0.00666806 0)
(51.0616 -0.0114295 0)
(51.0663 -0.00372452 0)
(51.0722 -0.0074424 0)
(51.0775 -0.00767329 0)
(51.0825 -0.00599374 0)
(51.088 -0.00441981 0)
(51.0933 -0.00340761 0)
(51.0992 -0.00144588 0)
(51.1052 0.00146688 0)
(51.1118 0.00599293 0)
(51.1183 0.0120436 0)
(51.1247 0.020257 0)
(51.1302 0.0306274 0)
(51.1341 0.0434851 0)
(51.1352 0.0584917 0)
(51.1324 0.0750859 0)
(51.1247 0.0917959 0)
(51.1116 0.106771 0)
(51.0937 0.117739 0)
(51.0727 0.122848 0)
(51.051 0.121062 0)
(51.0313 0.112706 0)
(51.0157 0.0992356 0)
(51.0054 0.0828089 0)
(51.0004 0.0655618 0)
(50.9998 0.0491681 0)
(51.0027 0.0346158 0)
(51.0078 0.0223638 0)
(51.0142 0.0125918 0)
(51.0212 0.00534319 0)
(51.0277 0.000302898 0)
(51.0332 -0.00335635 0)
(51.0374 -0.00669194 0)
(51.0408 -0.0103556 0)
(51.0441 -0.0142306 0)
(51.0481 -0.0177022 0)
(51.0531 -0.0199776 0)
(51.0587 -0.0206696 0)
(51.0638 -0.0198294 0)
(51.0677 -0.0177498 0)
(51.0699 -0.0150743 0)
(51.0717 -0.0125844 0)
(51.0639 -0.00993397 0)
(50.9174 -0.00915835 0)
(50.512 -0.00516717 0)
(51.0615 -0.0114302 0)
(51.0664 -0.00414788 0)
(51.0722 -0.00692723 0)
(51.0775 -0.00743554 0)
(51.0826 -0.00567117 0)
(51.0881 -0.00440537 0)
(51.0934 -0.00350105 0)
(51.0994 -0.00169935 0)
(51.1055 0.000967042 0)
(51.1123 0.00519381 0)
(51.1191 0.010961 0)
(51.126 0.0189412 0)
(51.1322 0.0291845 0)
(51.1371 0.0420851 0)
(51.1395 0.0574282 0)
(51.1381 0.0748268 0)
(51.1319 0.0929899 0)
(51.1201 0.110166 0)
(51.1028 0.124006 0)
(51.0812 0.132331 0)
(51.0578 0.13357 0)
(51.0353 0.127475 0)
(51.0165 0.115108 0)
(51.0028 0.0985449 0)
(50.995 0.0801412 0)
(50.9924 0.0619569 0)
(50.9939 0.0453673 0)
(50.9983 0.0310598 0)
(51.0046 0.0192425 0)
(51.0119 0.00999776 0)
(51.0194 0.00333303 0)
(51.0263 -0.00111754 0)
(51.0319 -0.00429731 0)
(51.036 -0.00734429 0)
(51.0392 -0.0108959 0)
(51.0425 -0.0147485 0)
(51.0465 -0.018207 0)
(51.0518 -0.0204261 0)
(51.0576 -0.0210277 0)
(51.0629 -0.0200792 0)
(51.0668 -0.0179008 0)
(51.0692 -0.0151407 0)
(51.0718 -0.012632 0)
(50.9764 -0.00918341 0)
(50.6767 -0.00684139 0)
(50.2063 -0.00372028 0)
(51.0615 -0.011204 0)
(51.0664 -0.00484249 0)
(51.0721 -0.00670395 0)
(51.0776 -0.00689708 0)
(51.0826 -0.00555347 0)
(51.0881 -0.00457309 0)
(51.0935 -0.00367963 0)
(51.0995 -0.00192842 0)
(51.1058 0.000570777 0)
(51.1127 0.00453152 0)
(51.1198 0.0100005 0)
(51.1272 0.0176953 0)
(51.134 0.0277325 0)
(51.1398 0.0405766 0)
(51.1434 0.0561214 0)
(51.1436 0.074149 0)
(51.139 0.0935643 0)
(51.1287 0.112763 0)
(51.1123 0.129397 0)
(51.0907 0.141055 0)
(51.066 0.145682 0)
(51.041 0.142409 0)
(51.0188 0.131783 0)
(51.0015 0.115641 0)
(50.9904 0.0964379 0)
(50.9852 0.0765824 0)
(50.985 0.0578873 0)
(50.9885 0.0414104 0)
(50.9944 0.0275124 0)
(51.0017 0.016208 0)
(51.0098 0.00751127 0)
(51.0178 0.00144073 0)
(51.0249 -0.00242755 0)
(51.0305 -0.00514224 0)
(51.0346 -0.00792254 0)
(51.0376 -0.0113804 0)
(51.0408 -0.0152182 0)
(51.0451 -0.0186715 0)
(51.0505 -0.0208384 0)
(51.0566 -0.0213537 0)
(51.0621 -0.0203085 0)
(51.0661 -0.0180246 0)
(51.0696 -0.0152346 0)
(51.0305 -0.0122439 0)
(50.7638 -0.00736354 0)
(50.3786 -0.00452578 0)
(49.8852 -0.00241355 0)
(51.0614 -0.0107017 0)
(51.0665 -0.00547495 0)
(51.0721 -0.00680297 0)
(51.0776 -0.00626841 0)
(51.0827 -0.00563766 0)
(51.0882 -0.00488776 0)
(51.0935 -0.00395539 0)
(51.0997 -0.00218597 0)
(51.106 0.000221591 0)
(51.1131 0.00397193 0)
(51.1204 0.00916232 0)
(51.1282 0.0165505 0)
(51.1357 0.0263221 0)
(51.1423 0.039021 0)
(51.1471 0.0546386 0)
(51.1488 0.0731201 0)
(51.1459 0.0935756 0)
(51.1372 0.114584 0)
(51.1221 0.133873 0)
(51.101 0.148889 0)
(51.0755 0.157172 0)
(51.0484 0.15724 0)
(51.0229 0.149015 0)
(51.0018 0.133938 0)
(50.9869 0.114421 0)
(50.9786 0.0931378 0)
(50.9762 0.0723356 0)
(50.9784 0.0535256 0)
(50.9837 0.037403 0)
(50.9909 0.0240418 0)
(50.999 0.0132886 0)
(51.0077 0.00514862 0)
(51.0162 -0.000335448 0)
(51.0236 -0.00362813 0)
(51.0292 -0.00589796 0)
(51.0331 -0.00843386 0)
(51.0361 -0.0118132 0)
(51.0393 -0.0156469 0)
(51.0437 -0.0190971 0)
(51.0495 -0.0212149 0)
(51.0558 -0.0216554 0)
(51.0614 -0.0205035 0)
(51.0659 -0.0181474 0)
(51.0568 -0.0152314 0)
(50.8597 -0.0106499 0)
(50.4782 -0.00533611 0)
(50.0517 -0.00239179 0)
(49.5637 -0.00130163 0)
(51.0613 -0.0100752 0)
(51.0665 -0.00585016 0)
(51.0721 -0.0071628 0)
(51.0776 -0.0057958 0)
(51.0827 -0.00590448 0)
(51.0882 -0.00527815 0)
(51.0936 -0.00429163 0)
(51.0998 -0.00249337 0)
(51.1062 -0.000130005 0)
(51.1134 0.00346695 0)
(51.121 0.00841845 0)
(51.1291 0.0155094 0)
(51.1372 0.0249842 0)
(51.1446 0.0374681 0)
(51.1505 0.0530454 0)
(51.1536 0.0718151 0)
(51.1524 0.0930962 0)
(51.1456 0.115679 0)
(51.1321 0.137426 0)
(51.1119 0.155739 0)
(51.0861 0.167847 0)
(51.0573 0.171693 0)
(51.0288 0.166521 0)
(51.0038 0.15322 0)
(50.9848 0.13399 0)
(50.9729 0.111661 0)
(50.9677 0.0888719 0)
(50.9681 0.0676083 0)
(50.9725 0.0490115 0)
(50.9793 0.0334389 0)
(50.9876 0.0206919 0)
(50.9965 0.0105089 0)
(51.0058 0.00291412 0)
(51.0146 -0.00199031 0)
(51.0222 -0.00472458 0)
(51.0279 -0.0065716 0)
(51.0317 -0.00888599 0)
(51.0347 -0.0122014 0)
(51.038 -0.0160353 0)
(51.0426 -0.0194872 0)
(51.0487 -0.0215642 0)
(51.0553 -0.0219211 0)
(51.0609 -0.020682 0)
(51.0644 -0.018317 0)
(50.9394 -0.0142649 0)
(50.5921 -0.00844041 0)
(50.1531 -0.00341003 0)
(49.716 -0.000549605 0)
(49.2512 -0.000396647 0)
(51.0612 -0.00939959 0)
(51.0665 -0.00585223 0)
(51.0721 -0.00774216 0)
(51.0776 -0.00570496 0)
(51.0827 -0.00630782 0)
(51.0882 -0.0056708 0)
(51.0936 -0.00463625 0)
(51.0999 -0.00283837 0)
(51.1064 -0.000511385 0)
(51.1137 0.00297296 0)
(51.1215 0.00772984 0)
(51.13 0.014552 0)
(51.1385 0.0237263 0)
(51.1467 0.0359498 0)
(51.1536 0.0513958 0)
(51.1581 0.070307 0)
(51.1587 0.0922075 0)
(51.1538 0.116117 0)
(51.1421 0.140086 0)
(51.1231 0.161553 0)
(51.0976 0.177549 0)
(51.0677 0.185515 0)
(51.0365 0.183997 0)
(51.0078 0.173218 0)
(50.9844 0.154983 0)
(50.9683 0.132122 0)
(50.9597 0.107604 0)
(50.9577 0.0838828 0)
(50.9607 0.0625779 0)
(50.9671 0.0444687 0)
(50.9754 0.0295822 0)
(50.9846 0.0175002 0)
(50.9942 0.00787965 0)
(51.0039 0.000813845 0)
(51.0131 -0.00352856 0)
(51.0209 -0.0057221 0)
(51.0266 -0.0071716 0)
(51.0304 -0.00928579 0)
(51.0334 -0.0125472 0)
(51.0368 -0.0163877 0)
(51.0417 -0.0198472 0)
(51.0482 -0.0218766 0)
(51.0548 -0.0221649 0)
(51.0613 -0.020899 0)
(51.0005 -0.0180289 0)
(50.6972 -0.0121607 0)
(50.2719 -0.00628932 0)
(49.8125 -0.00168901 0)
(49.3846 0.000966831 0)
(48.9538 0.000310776 0)
(51.0612 -0.00885229 0)
(51.0664 -0.00555405 0)
(51.0721 -0.00832072 0)
(51.0776 -0.00611804 0)