/*--------------------------------*- C++ -*----------------------------------*\
  =========                 |
  \\      /  F ield         | OpenFOAM: The Open Source CFD Toolbox
   \\    /   O peration     | Website:  https://openfoam.org
    \\  /    A nd           | Version:  dev
     \\/     M anipulation  |
\*---------------------------------------------------------------------------*/
FoamFile
{
    version     2.0;
    format      ascii;
    class       volScalarField;
    location    "325";
    object      yPlus;
}
// * * * * * * * * * * * * * * * * * * * * * * * * * * * * * * * * * * * * * //

dimensions      [0 0 0 0 0 0 0];

internalField   uniform 0;

boundaryField
{
    inlet-l
    {
        type            calculated;
        value           uniform 0;
    }
    airfoil-l1
    {
        type            calculated;
        value           nonuniform List<scalar> 
71
(
191.508
214.772
249.862
283.673
310.248
327.652
337.966
343.144
344.677
343.699
340.899
337.038
331.678
325.262
318.184
310.715
303.023
295.216
287.349
279.501
271.737
264.075
256.546
249.179
242.001
235.036
228.307
221.826
215.64
209.779
204.278
199.18
194.53
190.366
186.749
183.712
181.277
179.434
178.143
177.355
176.955
176.862
177.039
177.339
177.753
178.124
178.495
178.744
178.869
178.826
178.63
178.192
177.487
176.583
175.439
174.024
172.421
170.578
168.566
166.356
164.033
161.567
159.007
156.377
153.683
150.975
148.257
145.574
142.909
140.403
137.773
)
;
    }
    empty-1
    {
        type            empty;
    }
    empty-2
    {
        type            empty;
    }
    wall-l1
    {
        type            calculated;
        value           nonuniform List<scalar> 
104
(
30.9082
25.8679
15.25
13.091
20.1304
17.1176
16.9772
16.6065
16.5788
17.2733
14.9784
13.3543
13.2114
13.536
13.8337
14.1523
14.1505
14.2622
14.5789
14.6147
14.7592
14.7931
14.6678
14.385
13.9541
13.5259
13.2548
13.1883
13.2465
13.4474
13.6374
13.7039
13.6397
13.5031
13.451
13.5523
13.8346
14.2465
14.5679
14.5916
14.2805
13.8231
13.4993
13.4094
13.5536
14.0739
15.05
16.208
17.142
17.6006
17.5369
17.0549
16.3495
15.6454
15.1166
14.8424
14.8265
15.0568
15.517
16.1491
16.8291
17.3959
17.7064
17.6834
17.34
16.7818
16.179
15.6951
15.4214
15.3651
15.4845
15.7143
15.9861
16.2481
16.4763
16.6631
16.7926
16.8312
16.7408
16.5158
16.214
15.9499
15.846
15.9877
16.3981
17.0044
17.6248
18.0454
18.1303
17.8836
17.4393
17.0008
16.741
16.7433
16.9909
17.3903
17.7979
18.0771
18.152
18.0276
17.7773
17.5187
17.3423
17.4307
)
;
    }
    airfoil-l2
    {
        type            calculated;
        value           nonuniform List<scalar> 
104
(
137.421
139.79
141.638
142.971
143.937
144.622
145.084
145.366
145.515
145.562
145.488
145.314
145.072
144.786
144.463
144.111
143.73
143.346
142.941
142.522
142.099
141.671
141.238
140.795
140.348
139.901
139.45
138.996
138.54
138.078
137.61
137.152
136.699
136.236
135.768
135.305
134.842
134.383
133.923
133.458
132.992
132.526
132.059
131.593
131.132
130.667
130.201
129.733
129.267
128.8
128.331
127.859
127.388
126.918
126.446
125.971
125.49
125.011
124.53
124.047
123.557
123.067
122.577
122.076
121.573
121.065
120.551
120.029
119.506
118.982
118.448
117.899
117.346
116.787
116.207
115.63
115.041
114.432
113.812
113.177
112.526
111.85
111.165
110.454
109.714
108.951
108.162
107.336
106.462
105.558
104.607
103.6
102.529
101.387
100.162
98.8367
97.3919
95.8045
94.0398
92.0242
89.7127
86.8262
83.5562
77.2657
)
;
    }
    empty-3
    {
        type            empty;
    }
    empty-4
    {
        type            empty;
    }
    wall-l2
    {
        type            calculated;
        value           nonuniform List<scalar> 
51
(
17.4598
17.7289
18.1411
18.4898
18.827
18.9353
18.9736
18.8645
18.6012
18.22
17.7209
17.2237
16.8622
16.7423
16.9412
17.5024
18.4304
19.5503
20.546
21.098
21.0276
20.3573
19.3363
18.3862
17.8326
17.6479
17.6478
17.8054
18.1855
18.6905
19.0781
19.1742
18.9937
18.6924
18.4288
18.2422
18.0744
17.8845
17.7027
17.5807
17.5347
17.5431
17.5781
17.6071
17.5817
17.4522
17.2123
16.9375
16.7439
16.7281
17.0019
)
;
    }
    outlet-l
    {
        type            calculated;
        value           uniform 0;
    }
    empty-5
    {
        type            empty;
    }
    empty-6
    {
        type            empty;
    }
    outlet-h
    {
        type            calculated;
        value           uniform 0;
    }
    wall-h2
    {
        type            calculated;
        value           nonuniform List<scalar> 
51
(
18.0248
18.1168
18.1841
18.2169
18.207
18.1639
18.1017
18.0414
17.9968
17.9776
17.9849
18.0156
18.0657
18.1312
18.2067
18.2841
18.3526
18.4013
18.4237
18.4208
18.3993
18.3671
18.3289
18.2854
18.2373
18.1893
18.1517
18.1351
18.1421
18.162
18.1724
18.1494
18.0809
17.9744
17.8537
17.7462
17.6682
17.6161
17.5681
17.4952
17.3332
17.2288
17.1258
17.0283
16.9374
16.8498
16.7583
16.6562
16.5314
16.399
16.1613
)
;
    }
    empty-7
    {
        type            empty;
    }
    empty-8
    {
        type            empty;
    }
    airfoil-h2
    {
        type            calculated;
        value           nonuniform List<scalar> 
104
(
136.073
138.407
140.24
141.572
142.547
143.254
143.742
144.06
144.245
144.336
144.328
144.227
144.058
143.835
143.568
143.274
142.95
142.62
142.266
141.905
141.534
141.152
140.763
140.369
139.969
139.554
139.145
138.729
138.305
137.884
137.456
137.022
136.585
136.158
135.724
135.284
134.838
134.389
133.946
133.496
133.05
132.597
132.144
131.688
131.235
130.781
130.321
129.859
129.396
128.928
128.468
127.994
127.524
127.056
126.582
126.105
125.63
125.149
124.66
124.177
123.684
123.198
122.697
122.195
121.689
121.181
120.667
120.145
119.621
119.092
118.547
118.004
117.448
116.884
116.311
115.725
115.136
114.528
113.909
113.272
112.614
111.944
111.254
110.538
109.802
109.045
108.252
107.426
106.559
105.65
104.692
103.678
102.599
101.455
100.225
98.8973
97.4471
95.8464
94.0594
92.0241
89.6962
86.7949
83.5162
77.1866
)
;
    }
    wall-h1
    {
        type            calculated;
        value           nonuniform List<scalar> 
104
(
14.0159
14.1441
14.5031
14.4116
14.3346
14.4013
14.4262
14.4456
14.4569
14.4564
14.4992
14.5401
14.5721
14.6037
14.6334
14.6622
14.693
14.7236
14.7562
14.797
14.8394
14.8816
14.9168
14.9409
14.9533
14.9588
14.9649
14.9798
15.01
15.0539
15.1055
15.1501
15.175
15.1753
15.1581
15.1416
15.144
15.1758
15.2354
15.308
15.3726
15.4092
15.4155
15.4032
15.3966
15.415
15.4697
15.556
15.6553
15.7419
15.793
15.8035
15.7849
15.7605
15.7543
15.7823
15.8471
15.9411
16.0482
16.152
16.2377
16.3001
16.339
16.3588
16.3638
16.3583
16.3492
16.3425
16.3433
16.356
16.3806
16.4123
16.444
16.4689
16.4824
16.4857
16.4845
16.4901
16.5147
16.5666
16.6482
16.7555
16.8773
16.9975
17.1025
17.1818
17.2334
17.2624
17.2782
17.2936
17.317
17.3547
17.405
17.4637
17.5217
17.574
17.6162
17.6499
17.6789
17.7078
17.7438
17.793
17.8569
17.9492
)
;
    }
    empty-9
    {
        type            empty;
    }
    empty-10
    {
        type            empty;
    }
    inlet-h
    {
        type            calculated;
        value           uniform 0;
    }
    airfoil-h1
    {
        type            calculated;
        value           nonuniform List<scalar> 
71
(
189.65
210.076
244.589
279.143
307.49
326.876
338.941
345.511
348.085
347.833
345.527
341.888
336.813
330.482
323.34
315.699
307.755
299.637
291.405
283.168
274.98
266.869
258.883
251.054
243.388
235.937
228.719
221.773
215.115
208.784
202.827
197.295
192.233
187.686
183.723
180.371
177.664
175.613
174.169
173.267
172.818
172.713
172.886
173.241
173.744
174.219
174.672
175.032
175.284
175.401
175.314
175.054
174.535
173.783
172.775
171.502
170.02
168.316
166.39
164.299
162.046
159.665
157.18
154.619
151.999
149.333
146.688
144.05
141.451
139.011
136.436
)
;
    }
    empty-11
    {
        type            empty;
    }
    empty-12
    {
        type            empty;
    }
}


// ************************************************************************* //
