/*--------------------------------*- C++ -*----------------------------------*\
  =========                 |
  \\      /  F ield         | OpenFOAM: The Open Source CFD Toolbox
   \\    /   O peration     | Website:  https://openfoam.org
    \\  /    A nd           | Version:  dev
     \\/     M anipulation  |
\*---------------------------------------------------------------------------*/
FoamFile
{
    version     2.0;
    format      ascii;
    class       volScalarField;
    location    "500";
    object      nuTilda;
}
// * * * * * * * * * * * * * * * * * * * * * * * * * * * * * * * * * * * * * //

dimensions      [0 2 -1 0 0 0 0];

internalField   nonuniform List<scalar> 
29380
(
5.98636e-05
5.9767e-05
6.08442e-05
5.98294e-05
6.05782e-05
6.09547e-05
6.00223e-05
5.96546e-05
6.0838e-05
6.05501e-05
6.02104e-05
5.93131e-05
5.97886e-05
6.07809e-05
5.98432e-05
6.02563e-05
5.95494e-05
5.93035e-05
6.01764e-05
6.02375e-05
5.94186e-05
6.01478e-05
5.99811e-05
5.94822e-05
5.97553e-05
6.03779e-05
5.95952e-05
5.93039e-05
5.99754e-05
6.02656e-05
5.99248e-05
5.9705e-05
6.03246e-05
6.01663e-05
5.92886e-05
5.94059e-05
5.98447e-05
6.02856e-05
6.02437e-05
5.98444e-05
6.01874e-05
6.0515e-05
5.99826e-05
5.93198e-05
5.95418e-05
5.98094e-05
6.01384e-05
6.02861e-05
5.99902e-05
5.9991e-05
6.05311e-05
6.04566e-05
5.9961e-05
5.9385e-05
5.97568e-05
5.98608e-05
5.99842e-05
6.01423e-05
6.00591e-05
5.98234e-05
6.02556e-05
6.0538e-05
6.03471e-05
5.99783e-05
5.95938e-05
5.99681e-05
5.99566e-05
5.99139e-05
5.99853e-05
6.00677e-05
5.97747e-05
5.98979e-05
6.03055e-05
6.03524e-05
6.03333e-05
6.00052e-05
5.97798e-05
6.03425e-05
6.00509e-05
5.99219e-05
5.99188e-05
6.00595e-05
5.98649e-05
5.96875e-05
5.99795e-05
6.01496e-05
6.02621e-05
6.02559e-05
5.99949e-05
6.02757e-05
6.07366e-05
6.01091e-05
5.99584e-05
5.99388e-05
6.00503e-05
6.00242e-05
5.97188e-05
5.97776e-05
5.99533e-05
6.00057e-05
6.01388e-05
6.01172e-05
6.01453e-05
6.06966e-05
6.11683e-05
6.01129e-05
5.99872e-05
5.99863e-05
6.00315e-05
6.01443e-05
5.99156e-05
5.97805e-05
5.98907e-05
5.984e-05
5.98838e-05
5.99507e-05
5.99291e-05
6.02543e-05
6.14116e-05
6.06698e-05
6.00658e-05
6.00047e-05
6.00147e-05
5.99995e-05
6.01571e-05
6.01152e-05
5.9921e-05
5.99478e-05
5.98803e-05
5.97712e-05
5.97195e-05
5.95952e-05
5.98056e-05
6.05583e-05
6.14253e-05
6.00404e-05
5.99938e-05
6.00218e-05
6.00169e-05
5.99695e-05
6.00764e-05
6.01927e-05
6.0067e-05
6.00313e-05
6.00401e-05
5.98986e-05
5.96975e-05
5.9388e-05
5.93696e-05
5.97409e-05
6.09476e-05
6.02327e-05
6.0759e-05
5.99358e-05
6.00408e-05
6.00105e-05
5.99619e-05
5.99742e-05
6.01335e-05
6.01234e-05
6.00637e-05
6.01552e-05
6.01354e-05
5.99513e-05
5.95254e-05
5.91688e-05
5.9175e-05
6.01847e-05
6.01083e-05
5.98276e-05
6.18098e-05
5.9921e-05
6.005e-05
6.00113e-05
5.99824e-05
5.99205e-05
6.00144e-05
6.00826e-05
6.00338e-05
6.01349e-05
6.02698e-05
6.02929e-05
5.99797e-05
5.93706e-05
5.90295e-05
5.95463e-05
5.99826e-05
5.87787e-05
6.10533e-05
6.19238e-05
5.99511e-05
6.0037e-05
6.00192e-05
6.00162e-05
5.99367e-05
5.9929e-05
6.0004e-05
5.99835e-05
6.00163e-05
6.01971e-05
6.04531e-05
6.04752e-05
5.99056e-05
5.93299e-05
5.92712e-05
5.99736e-05
5.85685e-05
5.9094e-05
6.22801e-05
6.07542e-05
6.00004e-05
6.00036e-05
6.00237e-05
6.00403e-05
5.99933e-05
5.99219e-05
5.99546e-05
5.996e-05
5.9907e-05
5.99885e-05
6.03083e-05
6.06891e-05
6.04791e-05
5.98916e-05
5.94233e-05
6.00632e-05
5.91613e-05
5.78978e-05
6.05589e-05
6.18723e-05
5.95387e-05
6.00354e-05
5.99681e-05
6.00169e-05
6.00412e-05
6.00428e-05
5.99733e-05
5.99609e-05
5.99783e-05
5.98875e-05
5.98113e-05
5.99695e-05
6.04914e-05
6.07608e-05
6.04126e-05
5.98317e-05
6.01914e-05
6.01605e-05
5.79086e-05
5.87381e-05
6.15658e-05
6.00892e-05
5.92691e-05
6.0038e-05
5.99531e-05
6.00014e-05
6.00218e-05
6.0056e-05
6.00311e-05
6.0002e-05
6.00176e-05
5.99565e-05
5.9789e-05
5.96796e-05
6.00297e-05
6.06096e-05
6.06382e-05
6.02148e-05
6.02586e-05
6.10133e-05
5.89848e-05
5.77074e-05
6.04794e-05
6.08905e-05
5.8472e-05
5.98723e-05
6.00157e-05
5.99692e-05
5.99884e-05
5.99974e-05
6.00354e-05
6.00552e-05
6.00379e-05
6.00449e-05
6.00487e-05
5.9917e-05
5.96251e-05
5.96095e-05
6.01585e-05
6.05038e-05
6.03587e-05
6.01825e-05
6.12995e-05
6.04768e-05
5.78936e-05
5.92056e-05
6.13072e-05
5.91858e-05
5.81536e-05
6.06435e-05
5.99915e-05
6.00066e-05
5.99882e-05
5.99833e-05
6.00039e-05
6.00403e-05
6.00427e-05
6.00421e-05
6.00953e-05
6.00864e-05
5.98126e-05
5.94759e-05
5.97049e-05
6.01543e-05
6.02399e-05
5.99644e-05
6.09247e-05
6.15883e-05
5.91081e-05
5.83435e-05
6.10438e-05
6.0673e-05
5.79078e-05
5.89611e-05
6.10741e-05
5.99841e-05
6.00415e-05
6.0002e-05
5.99862e-05
5.9984e-05
6.00084e-05
6.00203e-05
6.00167e-05
6.00732e-05
6.01776e-05
6.00892e-05
5.96631e-05
5.95023e-05
5.98282e-05
6.00103e-05
5.97136e-05
6.01324e-05
6.17999e-05
6.06522e-05
5.8307e-05
6.01478e-05
6.18716e-05
5.93646e-05
5.77526e-05
6.0211e-05
6.09307e-05
5.99953e-05
6.00522e-05
6.00202e-05
6.00013e-05
5.99841e-05
5.99857e-05
5.99931e-05
5.99904e-05
6.0012e-05
6.01443e-05
6.02691e-05
6.00052e-05
5.96109e-05
5.96969e-05
5.98642e-05
5.95914e-05
5.93536e-05
6.11044e-05
6.17214e-05
5.90816e-05
5.90839e-05
6.19518e-05
6.13954e-05
5.83908e-05
5.85687e-05
6.11302e-05
6.02506e-05
6.00118e-05
6.0033e-05
6.00292e-05
6.00172e-05
5.99978e-05
5.9984e-05
5.99815e-05
5.99812e-05
5.9961e-05
6.00311e-05
6.02607e-05
6.02751e-05
5.98975e-05
5.97729e-05
5.98934e-05
5.97002e-05
5.89768e-05
5.9957e-05
6.18306e-05
6.02413e-05
5.84528e-05
6.08186e-05
6.26239e-05
6.03008e-05
5.81996e-05
5.9741e-05
6.12013e-05
5.94131e-05
6.00185e-05
5.9998e-05
6.00215e-05
6.00235e-05
6.00127e-05
5.99976e-05
5.99899e-05
5.99909e-05
5.99517e-05
5.99258e-05
6.0107e-05
6.03354e-05
6.01587e-05
5.99405e-05
6.00355e-05
5.99993e-05
5.91532e-05
5.89925e-05
6.10379e-05
6.11906e-05
5.86175e-05
5.91573e-05
6.22467e-05
6.21354e-05
5.93226e-05
5.87521e-05
6.05877e-05
6.0393e-05
5.89543e-05
6.00106e-05
5.99701e-05
6.00019e-05
6.0017e-05
6.00197e-05
6.00128e-05
6.00072e-05
6.00079e-05
5.99798e-05
5.98922e-05
5.99304e-05
6.02026e-05
6.02601e-05
6.0064e-05
6.01462e-05
6.03163e-05
5.97349e-05
5.86733e-05
5.9858e-05
6.14869e-05
5.94878e-05
5.79595e-05
6.0517e-05
6.26745e-05
6.10525e-05
5.89803e-05
5.96637e-05
6.06118e-05
5.92841e-05
5.91911e-05
5.99953e-05
5.99661e-05
5.99841e-05
6.00033e-05
6.00167e-05
6.00192e-05
6.00193e-05
6.00182e-05
6.00172e-05
5.99346e-05
5.98393e-05
6.00005e-05
6.01981e-05
6.00843e-05
6.01229e-05
6.04564e-05
6.03766e-05
5.90655e-05
5.8938e-05
6.10589e-05
6.05875e-05
5.7901e-05
5.85022e-05
6.16024e-05
6.21677e-05
6.01075e-05
5.93882e-05
6.0328e-05
5.98341e-05
5.89346e-05
5.98322e-05
5.99849e-05
5.99861e-05
5.99811e-05
5.99928e-05
6.0008e-05
6.00154e-05
6.00194e-05
6.00166e-05
6.00368e-05
6.00083e-05
5.98641e-05
5.98595e-05
6.00631e-05
6.00364e-05
5.99828e-05
6.03335e-05
6.07392e-05
5.98554e-05
5.86965e-05
6.02034e-05
6.13414e-05
5.89679e-05
5.73697e-05
5.96173e-05
6.19521e-05
6.12335e-05
5.9808e-05
6.01795e-05
6.02569e-05
5.90582e-05
5.99264e-05
6.00252e-05
5.99864e-05
6.00149e-05
5.99955e-05
5.9993e-05
6.00002e-05
6.00068e-05
6.00108e-05
6.00077e-05
6.00305e-05
6.00606e-05
5.99591e-05
5.98378e-05
5.9955e-05
5.99947e-05
5.98391e-05
6.0028e-05
6.06727e-05
6.05716e-05
5.91349e-05
5.93876e-05
6.13943e-05
6.05207e-05
5.76997e-05
5.7903e-05
6.05926e-05
6.15756e-05
6.04577e-05
6.02084e-05
6.07176e-05
5.94825e-05
5.93159e-05
6.13805e-05
5.92621e-05
5.99981e-05
6.00332e-05
6.00174e-05
6.00036e-05
5.99981e-05
6.00002e-05
6.00019e-05
6.00006e-05
6.00099e-05
6.00658e-05
6.00507e-05
5.99088e-05
5.99195e-05
6.00029e-05
5.98059e-05
5.97304e-05
6.02765e-05
6.08632e-05
5.99043e-05
5.89882e-05
6.07783e-05
6.17042e-05
5.92155e-05
5.73893e-05
5.89461e-05
6.09646e-05
6.08133e-05
6.02464e-05
6.09288e-05
6.03803e-05
5.8722e-05
6.07961e-05
6.17631e-05
5.80116e-05
6.00118e-05
6.00306e-05
6.00316e-05
6.00166e-05
6.00023e-05
5.99995e-05
5.99987e-05
6.00004e-05
5.9993e-05
6.00347e-05
6.00892e-05
6.00032e-05
5.99403e-05
6.00445e-05
5.991e-05
5.96142e-05
5.98112e-05
6.0667e-05
6.05539e-05
5.91187e-05
5.9859e-05
6.19323e-05
6.10227e-05
5.82614e-05
5.79464e-05
5.98413e-05
6.06669e-05
6.01726e-05
6.06703e-05
6.11932e-05
5.91784e-05
5.90062e-05
6.2517e-05
6.08844e-05
5.64721e-05
6.00195e-05
6.00116e-05
6.00283e-05
6.00224e-05
6.00097e-05
6.00039e-05
6.00016e-05
6.00054e-05
5.99902e-05
5.99968e-05
6.0071e-05
6.00634e-05
5.99758e-05
6.00694e-05
6.00769e-05
5.97284e-05
5.95319e-05
6.01874e-05
6.07892e-05
5.96213e-05
5.9114e-05
6.11739e-05
6.21554e-05
5.99453e-05
5.80695e-05
5.88808e-05
6.01766e-05
6.00324e-05
6.00685e-05
6.13019e-05
6.04101e-05
5.81525e-05
6.06662e-05
6.3538e-05
5.94871e-05
5.35338e-05
6.00181e-05
5.99909e-05
6.00107e-05
6.00171e-05
6.0015e-05
6.00096e-05
6.00067e-05
6.00102e-05
5.9999e-05
5.99766e-05
6.00255e-05
6.00718e-05
5.99973e-05
6.00442e-05
6.01916e-05
5.99795e-05
5.95485e-05
5.97313e-05
6.05937e-05
6.01951e-05
5.88812e-05
5.99145e-05
6.20958e-05
6.15014e-05
5.91419e-05
5.85676e-05
5.96627e-05
5.99504e-05
5.95302e-05
6.06112e-05
6.14063e-05
5.8911e-05
5.85455e-05
6.29381e-05
6.40094e-05
5.70001e-05
4.82545e-05
6.00091e-05
5.99821e-05
5.99912e-05
6.0005e-05
6.00148e-05
6.00129e-05
6.00101e-05
6.00106e-05
6.00095e-05
5.99799e-05
5.99866e-05
6.00458e-05
6.00038e-05
5.99811e-05
6.01826e-05
6.02052e-05
5.97919e-05
5.95219e-05
6.01717e-05
6.05682e-05
5.92079e-05
5.88474e-05
6.09989e-05
6.21556e-05
6.05229e-05
5.89733e-05
5.93752e-05
5.99772e-05
5.9418e-05
5.9634e-05
6.13875e-05
6.04774e-05
5.78739e-05
6.04233e-05
6.52209e-05
6.4287e-05
5.13868e-05
4.25349e-05
5.99973e-05
5.99892e-05
5.99829e-05
5.99954e-05
6.00093e-05
6.0012e-05
6.00101e-05
6.00068e-05
6.00136e-05
5.99959e-05
5.99714e-05
6.00133e-05
6.00087e-05
5.99256e-05
6.00669e-05
6.02824e-05
6.00865e-05
5.96e-05
5.97868e-05
6.06171e-05
5.98632e-05
5.84894e-05
5.95396e-05
6.16781e-05
6.14952e-05
5.98011e-05
5.93873e-05
6.00394e-05
5.97648e-05
5.90685e-05
6.0434e-05
6.15122e-05
5.88463e-05
5.81199e-05
6.31228e-05
6.78599e-05
6.33983e-05
4.22956e-05
4.04581e-05
5.99878e-05
6.00049e-05
5.99899e-05
5.99954e-05
6.00021e-05
6.00077e-05
6.00077e-05
6.00025e-05
6.00102e-05
6.00102e-05
5.99775e-05
5.99919e-05
6.00198e-05
5.99187e-05
5.9928e-05
6.01943e-05
6.0269e-05
5.98491e-05
5.96101e-05
6.03889e-05
6.04871e-05
5.89311e-05
5.85026e-05
6.04402e-05
6.16338e-05
6.0601e-05
5.96238e-05
6.00264e-05
6.02678e-05
5.92558e-05
5.93407e-05
6.12999e-05
6.03868e-05
5.74594e-05
5.95756e-05
6.66247e-05
7.09216e-05
5.93349e-05
3.32408e-05
4.32924e-05
5.99844e-05
6.00172e-05
6.00057e-05
6.00046e-05
5.99979e-05
6.00029e-05
6.00052e-05
6.00012e-05
6.0004e-05
6.00152e-05
5.99924e-05
5.99846e-05
6.00313e-05
5.99648e-05
5.98532e-05
6.00217e-05
6.02735e-05
6.0099e-05
5.96609e-05
6.00415e-05
6.07846e-05
5.98405e-05
5.83595e-05
5.91554e-05
6.09786e-05
6.10112e-05
5.9948e-05
5.99067e-05
6.05435e-05
5.99672e-05
5.89157e-05
6.02124e-05
6.12507e-05
5.84287e-05
5.69332e-05
6.20638e-05
7.13353e-05
7.25013e-05
5.16162e-05
2.93089e-05
7.40197e-05
5.99888e-05
6.00179e-05
6.0019e-05
6.00159e-05
5.99993e-05
6.00003e-05
6.00038e-05
6.00036e-05
6.00007e-05
6.00123e-05
6.00057e-05
5.9986e-05
6.00313e-05
6.00315e-05
5.98768e-05
5.9877e-05
6.01439e-05
6.023e-05
5.98445e-05
5.97495e-05
6.06617e-05
6.06892e-05
5.90585e-05
5.84731e-05
5.99554e-05
6.09086e-05
6.02319e-05
5.97604e-05
6.04129e-05
6.06414e-05
5.93691e-05
5.92255e-05
6.10094e-05
5.99626e-05
5.64833e-05
5.73034e-05
6.58589e-05
7.62067e-05
6.99146e-05
4.32987e-05
2.33077e-05
0.000770854
6.00002e-05
6.00084e-05
6.00217e-05
6.00212e-05
6.00049e-05
6.00012e-05
6.00038e-05
6.00072e-05
6.0002e-05
6.00073e-05
6.00132e-05
5.99913e-05
6.00154e-05
6.00747e-05
5.99676e-05
5.98326e-05
5.99814e-05
6.02178e-05
6.00373e-05
5.96265e-05
6.02442e-05
6.10555e-05
6.01184e-05
5.86503e-05
5.91149e-05
6.04254e-05
6.03915e-05
5.97085e-05
5.99977e-05
6.08257e-05
6.02499e-05
5.90612e-05
6.01681e-05
6.09727e-05
5.79061e-05
5.49405e-05
5.86586e-05
7.08633e-05
7.84781e-05
6.32278e-05
3.9838e-05
9.80006e-06
0.00337265
6.00141e-05
5.99972e-05
6.00143e-05
6.00175e-05
6.0011e-05
6.00048e-05
6.00045e-05
6.0009e-05
6.00058e-05
6.00044e-05
6.00156e-05
5.99985e-05
5.99919e-05
6.00705e-05
6.00596e-05
5.98882e-05
5.98757e-05
6.01147e-05
6.01552e-05
5.96913e-05
5.97833e-05
6.0831e-05
6.094e-05
5.94677e-05
5.88402e-05
5.98461e-05
6.03962e-05
5.98129e-05
5.95912e-05
6.04643e-05
6.08803e-05
5.96932e-05
5.95445e-05
6.10819e-05
5.99147e-05
5.56116e-05
5.39204e-05
6.1515e-05
7.56301e-05
7.62354e-05
5.52893e-05
6.3164e-05
0.00143499
0.00609334
6.00241e-05
5.99933e-05
6.00035e-05
6.00086e-05
6.00139e-05
6.00088e-05
6.00056e-05
6.00081e-05
6.00084e-05
6.00041e-05
6.00142e-05
6.00068e-05
5.99758e-05
6.00282e-05
6.00996e-05
5.99886e-05
5.98615e-05
5.99968e-05
6.01766e-05
5.98793e-05
5.9512e-05
6.02313e-05
6.11417e-05
6.04084e-05
5.91747e-05
5.94508e-05
6.02679e-05
6.00299e-05
5.94383e-05
5.98594e-05
6.08715e-05
6.05149e-05
5.95679e-05
6.06289e-05
6.13142e-05
5.81418e-05
5.33857e-05
5.41299e-05
6.59728e-05
7.78619e-05
7.03262e-05
4.15976e-05
0.000684998
0.00455686
0.00808105
6.00243e-05
6e-05
5.99967e-05
6.00012e-05
6.00124e-05
6.0011e-05
6.00066e-05
6.00054e-05
6.00078e-05
6.00043e-05
6.001e-05
6.00139e-05
5.9977e-05
5.99792e-05
6.00765e-05
6.00685e-05
5.99172e-05
5.99195e-05
6.01262e-05
6.00856e-05
5.95302e-05
5.9631e-05
6.07295e-05
6.09729e-05
5.9848e-05
5.93842e-05
6.00699e-05
6.0245e-05
5.95948e-05
5.94037e-05
6.03296e-05
6.09013e-05
6.00523e-05
6.01697e-05
6.16606e-05
6.07344e-05
5.60486e-05
5.18435e-05
5.65695e-05
7.0568e-05
7.59661e-05
6.15249e-05
0.000199644
0.00343447
0.00692677
0.00957372
6.00132e-05
6.0012e-05
5.99969e-05
5.99998e-05
6.00079e-05
6.00106e-05
6.00073e-05
6.00033e-05
6.0005e-05
6.00034e-05
6.0004e-05
6.00162e-05
5.99933e-05
5.99535e-05
6.00187e-05
6.00918e-05
5.99944e-05
5.99001e-05
6.00447e-05
6.02155e-05
5.9776e-05
5.93383e-05
6.00308e-05
6.09414e-05
6.04631e-05
5.9609e-05
5.98822e-05
6.03497e-05
5.99364e-05
5.93191e-05
5.96767e-05
6.06592e-05
6.04975e-05
6.00015e-05
6.12289e-05
6.2161e-05
5.95625e-05
5.40336e-05
5.20553e-05
6.09788e-05
7.2877e-05
6.93573e-05
6.75714e-05
0.00211757
0.00613183
0.00870881
0.010659
5.99959e-05
6.00207e-05
6.00021e-05
6.00036e-05
6.00034e-05
6.00082e-05
6.00076e-05
6.00032e-05
6.00024e-05
6.00021e-05
5.99983e-05
6.00123e-05
6.00129e-05
5.99614e-05
5.99675e-05
6.00632e-05
6.00505e-05
5.99265e-05
5.99688e-05
6.02241e-05
6.0084e-05
5.94431e-05
5.94633e-05
6.04446e-05
6.07241e-05
5.9958e-05
5.97702e-05
6.03021e-05
6.02698e-05
5.9574e-05
5.9304e-05
6.00615e-05
6.05536e-05
6.00548e-05
6.05561e-05
6.22207e-05
6.19841e-05
5.79371e-05
5.27511e-05
5.46297e-05
6.55632e-05
7.16868e-05
5.34905e-05
0.000998883
0.00513493
0.00810141
0.0100347
0.0114065
5.99813e-05
6.00202e-05
6.00082e-05
6.00082e-05
6.00012e-05
6.00055e-05
6.00073e-05
6.00049e-05
6.00021e-05
6.00018e-05
5.99958e-05
6.00042e-05
6.00235e-05
5.99907e-05
5.99497e-05
6.00133e-05
6.00676e-05
5.99741e-05
5.99222e-05
6.01285e-05
6.02878e-05
5.98093e-05
5.9294e-05
5.98324e-05
6.05737e-05
6.02414e-05
5.97616e-05
6.01371e-05
6.04493e-05
5.99736e-05
5.93414e-05
5.9544e-05
6.02481e-05
6.01109e-05
6.00216e-05
6.14402e-05
6.26819e-05
6.10067e-05
5.60516e-05
5.31036e-05
5.91106e-05
6.89288e-05
6.39935e-05
0.000324182
0.00395984
0.00734847
0.00958078
0.0109827
0.0118765
5.99799e-05
6.0012e-05
6.00118e-05
6.001e-05
6.00017e-05
6.00037e-05
6.00065e-05
6.00069e-05
6.00041e-05
6.00035e-05
5.99978e-05
5.99968e-05
6.00203e-05
6.00196e-05
5.99658e-05
5.99739e-05
6.00513e-05
6.00196e-05
5.9915e-05
5.99917e-05
6.03059e-05
6.01912e-05
5.95245e-05
5.94445e-05
6.01782e-05
6.03456e-05
5.98417e-05
5.9936e-05
6.04288e-05
6.03136e-05
5.96614e-05
5.93717e-05
5.98633e-05
6.00587e-05
5.97316e-05
6.04839e-05
6.2137e-05
6.22825e-05
5.91431e-05
5.46621e-05
5.57619e-05
6.48078e-05
7.0284e-05
9.23335e-05
0.00262741
0.0065008
0.00901736
0.0106571
0.0116183
0.0121218
5.99915e-05
6.00033e-05
6.00127e-05
6.00091e-05
6.00039e-05
6.00034e-05
6.00056e-05
6.0008e-05
6.00068e-05
6.00062e-05
6.0003e-05
5.99943e-05
6.00081e-05
6.00316e-05
5.99968e-05
5.9961e-05
6.00195e-05
6.00473e-05
5.99437e-05
5.98859e-05
6.01682e-05
6.03878e-05
5.99441e-05
5.94302e-05
5.97939e-05
6.02708e-05
5.99667e-05
5.97833e-05
6.02495e-05
6.0479e-05
6.00404e-05
5.95234e-05
5.96514e-05
5.99586e-05
5.96445e-05
5.97618e-05
6.11679e-05
6.22389e-05
6.08223e-05
5.6812e-05
5.48689e-05
6.09075e-05
7.1568e-05
6.85079e-05
0.00141316
0.00554989
0.00838005
0.0102495
0.0113994
0.0119987
0.012188
6.00094e-05
6.00002e-05
6.00114e-05
6.0008e-05
6.00061e-05
6.00041e-05
6.00049e-05
6.00074e-05
6.00082e-05
6.00081e-05
6.00084e-05
5.99977e-05
5.99961e-05
6.00243e-05
6.00209e-05
5.99719e-05
5.999e-05
6.00511e-05
5.99921e-05
5.98569e-05
5.99784e-05
6.03401e-05
6.02899e-05
5.97083e-05
5.96113e-05
6.01012e-05
6.00849e-05
5.9734e-05
5.99995e-05
6.04536e-05
6.03165e-05
5.98082e-05
5.96583e-05
5.99176e-05
5.97138e-05
5.93933e-05
6.03108e-05
6.17602e-05
6.149e-05
5.83691e-05
5.48912e-05
5.73064e-05
6.86182e-05
7.78349e-05
0.000615717
0.00449937
0.0076592
0.0097811
0.011121
0.0118678
0.012174
0.0121142
6.00252e-05
6.0005e-05
6.00087e-05
6.0009e-05
6.00072e-05
6.0005e-05
6.00047e-05
6.0006e-05
6.00077e-05
6.0008e-05
6.00107e-05
6.00041e-05
5.99914e-05
6.00073e-05
6.00273e-05
5.99932e-05
5.9974e-05
6.00339e-05
6.00369e-05
5.99048e-05
5.9845e-05
6.01318e-05
6.04001e-05
6.00626e-05
5.96692e-05
5.99398e-05
6.0155e-05
5.97981e-05
5.97765e-05
6.02814e-05
6.04385e-05
6.00569e-05
5.97645e-05
5.99485e-05
5.99058e-05
5.93579e-05
5.97063e-05
6.12921e-05
6.1963e-05
5.96718e-05
5.52804e-05
5.39346e-05
6.21311e-05
7.87519e-05
0.000247852
0.00333079
0.00687304
0.00924343
0.0107911
0.011696
0.012115
0.0121876
0.011934
6.00265e-05
6.0012e-05
6.00052e-05
6.00112e-05
6.0007e-05
6.00056e-05
6.00049e-05
6.00045e-05
6.00059e-05
6.00062e-05
6.00092e-05
6.00092e-05
5.9995e-05
5.9993e-05
6.00183e-05
6.00114e-05
5.9974e-05
6.00063e-05
6.00583e-05
5.99909e-05
5.9823e-05
5.99108e-05
6.02778e-05
6.02907e-05
5.98722e-05
5.98533e-05
6.01577e-05
5.99412e-05
5.96616e-05
6.0032e-05
6.04223e-05
6.02189e-05
5.98501e-05
5.99599e-05
6.01368e-05
5.95967e-05
5.93358e-05
6.07458e-05
6.24264e-05
6.13772e-05
5.66795e-05
5.17722e-05
5.39654e-05
6.98589e-05
0.000119986
0.00210752
0.00603141
0.00864495
0.0104038
0.0114799
0.0120302
0.0121865
0.0120764
0.0116761
6.00118e-05
6.00166e-05
6.00009e-05
6.00118e-05
6.0006e-05
6.00058e-05
6.00052e-05
6.00039e-05
6.00039e-05
6.00038e-05
6.00054e-05
6.00103e-05
6.00026e-05
5.99888e-05
6.00043e-05
6.00195e-05
5.99858e-05
5.99823e-05
6.00496e-05
6.00642e-05
5.9897e-05
5.97947e-05
6.00485e-05
6.03094e-05
6.00769e-05
5.98527e-05
6.00989e-05
6.00982e-05
5.96952e-05
5.97887e-05
6.02939e-05
6.03223e-05
5.99096e-05
5.98731e-05
6.02586e-05
5.9997e-05
5.92323e-05
5.99586e-05
6.23684e-05
6.32843e-05
5.96689e-05
5.24625e-05
4.76537e-05
5.49812e-05
7.74943e-05
0.00103902
0.00507693
0.00799239
0.00996088
0.0112165
0.0119073
0.0121723
0.0121216
0.0118722
0.0113649
5.99915e-05
6.00144e-05
5.99986e-05
6.00096e-05
6.00053e-05
6.0006e-05
6.00055e-05
6.00041e-05
6.00029e-05
6.00025e-05
6.00019e-05
6.00075e-05
6.00086e-05
5.99939e-05
5.99947e-05
6.00176e-05
6.00018e-05
5.99724e-05
6.00199e-05
6.00901e-05
6.00053e-05
5.98158e-05
5.98608e-05
6.01686e-05
6.01817e-05
5.99095e-05
6.00072e-05
6.01993e-05
5.98584e-05
5.96385e-05
6.00794e-05
6.03793e-05
6.00211e-05
5.97324e-05
6.01507e-05
6.03595e-05
5.94592e-05
5.91063e-05
6.13121e-05
6.42863e-05
6.35235e-05
5.67319e-05
4.67527e-05
4.20335e-05
5.23531e-05
0.000352516
0.00389778
0.00726302
0.00946658
0.0109039
0.0117455
0.0121251
0.0121642
0.0119541
0.0116023
0.0110218
5.998e-05
6.0008e-05
6.00001e-05
6.00044e-05
6.00051e-05
6.00061e-05
6.00057e-05
6.00049e-05
6.00032e-05
6.00026e-05
6.00005e-05
6.00034e-05
6.00099e-05
6.00025e-05
5.9993e-05
6.00098e-05
6.00142e-05
5.99789e-05
5.99876e-05
6.00654e-05
6.00835e-05
5.99257e-05
5.98e-05
5.99875e-05
6.01677e-05
5.99836e-05
5.99237e-05
6.02014e-05
6.00741e-05
5.96439e-05
5.98315e-05
6.03475e-05
6.02239e-05
5.96907e-05
5.98436e-05
6.04614e-05
5.99505e-05
5.86577e-05
5.95135e-05
6.33732e-05
6.62662e-05
6.31157e-05
5.24224e-05
3.83239e-05
3.21298e-05
7.37134e-05
0.00251678
0.00641291
0.00891213
0.0105439
0.0115415
0.0120462
0.0121779
0.0120418
0.0117129
0.0112903
0.0106651
5.99858e-05
6.00031e-05
6.00057e-05
6.00002e-05
6.00054e-05
6.00064e-05
6.00058e-05
6.00056e-05
6.00044e-05
6.00038e-05
6.00015e-05
6.00006e-05
6.00072e-05
6.00086e-05
5.9997e-05
6.00012e-05
6.00182e-05
5.99954e-05
5.99697e-05
6.00145e-05
6.00995e-05
6.0043e-05
5.98602e-05
5.9871e-05
6.00821e-05
6.0044e-05
5.98844e-05
6.01099e-05
6.02391e-05
5.98057e-05
5.96412e-05
6.01792e-05
6.04371e-05
5.98745e-05
5.95431e-05
6.02077e-05
6.04411e-05
5.89551e-05
5.79446e-05
6.069e-05
6.60372e-05
6.83356e-05
6.21461e-05
4.5966e-05
2.54763e-05
1.18034e-05
0.00124563
0.00541957
0.00827356
0.010133
0.0112947
0.0119317
0.0121663
0.0121044
0.0118361
0.0114231
0.0109566
0.0103111
6.00045e-05
6.00029e-05
6.00123e-05
6.00008e-05
6.0006e-05
6.00065e-05
6.00059e-05
6.0006e-05
6.00055e-05
6.0005e-05
6.00036e-05
6.00002e-05
6.00031e-05
6.00095e-05
6.00023e-05
5.99954e-05
6.00136e-05
6.00113e-05
5.9972e-05
5.99699e-05
6.0062e-05
6.01055e-05
5.99734e-05
5.98576e-05
5.9991e-05
6.00752e-05
5.99042e-05
5.99768e-05
6.02755e-05
6.0049e-05
5.96023e-05
5.99008e-05
6.05012e-05
6.02461e-05
5.95025e-05
5.97394e-05
6.06052e-05
5.98565e-05
5.75861e-05
5.76745e-05
6.26356e-05
6.92901e-05
7.07736e-05
6.07253e-05
3.69189e-05
8.63781e-06
0.000446012
0.00429118
0.00753411
0.00965905
0.0110035
0.0117797
0.0121248
0.0121467
0.0119374
0.0115737
0.0111062
0.0106191
0.00997388
6.00221e-05
6.00059e-05
6.00155e-05
6.00066e-05
6.00064e-05
6.00064e-05
6.00059e-05
6.00061e-05
6.0006e-05
6.00056e-05
6.00052e-05
6.00019e-05
6.00005e-05
6.00065e-05
6.00054e-05
5.9994e-05
6.00045e-05
6.00184e-05
5.99886e-05
5.99532e-05
6.00051e-05
6.00976e-05
6.00646e-05
5.99196e-05
5.99387e-05
6.00743e-05
5.99683e-05
5.9873e-05
6.01746e-05
6.02534e-05
5.9748e-05
5.96347e-05
6.03117e-05
6.05933e-05
5.98253e-05
5.93766e-05
6.03056e-05
6.0772e-05
5.8658e-05
5.61172e-05
5.79225e-05
6.52425e-05
7.34639e-05
7.44449e-05
5.96804e-05
2.89312e-05
0.000128832
0.00307576
0.0067135
0.00911014
0.0106614
0.0115883
0.0120513
0.0121645
0.0120227
0.0117054
0.0112779
0.0107812
0.0102934
0.00966594
6.00247e-05
6.00078e-05
6.00122e-05
6.00141e-05
6.00066e-05
6.0006e-05
6.00057e-05
6.00058e-05
6.00061e-05
6.00054e-05
6.00058e-05
6.0004e-05
6.00002e-05
6.00027e-05
6.00056e-05
5.99964e-05
5.99962e-05
6.00151e-05
6.00071e-05
5.99657e-05
5.99631e-05
6.00445e-05
6.00944e-05
5.99997e-05
5.99334e-05
6.00472e-05
6.0041e-05
5.98489e-05
6.0001e-05
6.03179e-05
6.00133e-05
5.95329e-05
5.9926e-05
6.06681e-05
6.0358e-05
5.94068e-05
5.97323e-05
6.10799e-05
6.04281e-05
5.69004e-05
5.46762e-05
5.85347e-05
6.87243e-05
7.96319e-05
8.07867e-05
6.21935e-05
5.69812e-05
0.00190646
0.00585457
0.00849395
0.0102608
0.0113538
0.0119431
0.0121553
0.0120881
0.0118247
0.0114331
0.0109688
0.0104647
0.00999315
0.00939782
6.00099e-05
6.0006e-05
6.00038e-05
6.00184e-05
6.0007e-05
6.0006e-05
6.00056e-05
6.00054e-05
6.00056e-05
6.00051e-05
6.00053e-05
6.00053e-05
6.00018e-05
6.00002e-05
6.00041e-05
6.00007e-05
5.99929e-05
6.00059e-05
6.00177e-05
5.99929e-05
5.99525e-05
5.99866e-05
6.00682e-05
6.00514e-05
5.99578e-05
6.00068e-05
6.00846e-05
5.99077e-05
5.98533e-05
6.02197e-05
6.02607e-05
5.9669e-05
5.95506e-05
6.03737e-05
6.07702e-05
5.98678e-05
5.92949e-05
6.05875e-05
6.17226e-05
5.94045e-05
5.47338e-05
5.31655e-05
5.94958e-05
7.37878e-05
8.90136e-05
9.02064e-05
6.71221e-05
0.000951459
0.0049322
0.00783348
0.00980341
0.0110711
0.0117972
0.012116
0.0121312
0.011928
0.011579
0.0111419
0.0106638
0.0101709
0.00972993
0.00917809
5.99886e-05
6.0002e-05
5.99956e-05
6.00167e-05
6.00078e-05
6.00065e-05
6.00056e-05
6.00052e-05
6.00051e-05
6.00049e-05
6.00047e-05
6.00053e-05
6.00037e-05
6.00002e-05
6.00025e-05
6.00045e-05
5.9995e-05
5.99975e-05
6.00172e-05
6.00164e-05
5.99688e-05
5.9954e-05
6.00184e-05
6.00599e-05
5.99892e-05
5.99701e-05
6.00806e-05
6.0007e-05
5.98064e-05
6.00255e-05
6.03604e-05
5.99766e-05
5.94091e-05
5.98522e-05
6.07772e-05
6.04963e-05
5.93339e-05
5.96743e-05
6.17465e-05
6.19627e-05
5.78194e-05
5.21858e-05
5.13506e-05
6.08789e-05
8.08847e-05
9.91915e-05
9.17918e-05
0.000335909
0.00382148
0.00712809
0.00930216
0.01074
0.0116099
0.0120434
0.0121485
0.0120132
0.0117122
0.0113083
0.0108504
0.0103784
0.00991207
0.00951315
0.00901312
5.99772e-05
5.99999e-05
5.99934e-05
6.00106e-05
6.0009e-05
6.00074e-05
6.00061e-05
6.00053e-05
6.0005e-05
6.00049e-05
6.00042e-05
6.00048e-05
6.00045e-05
6.00016e-05
6.00018e-05
6.00065e-05
6.00001e-05
5.99941e-05
6.00095e-05
6.00251e-05
5.99954e-05
5.99544e-05
5.99785e-05
6.0038e-05
6.00126e-05
5.9952e-05
6.00375e-05
6.00874e-05
5.98702e-05
5.98487e-05
6.02688e-05
6.02835e-05
5.959e-05
5.94043e-05
6.03426e-05
6.0894e-05
5.98662e-05
5.90106e-05
6.06033e-05
6.29999e-05
6.18274e-05
5.58109e-05
4.89199e-05
4.87871e-05
6.23189e-05
8.6686e-05
9.92987e-05
9.00395e-05
0.00247912
0.00633171
0.00876332
0.0103678
0.0113802
0.0119341
0.0121366
0.0120767
0.0118308
0.0114647
0.0110323
0.0105747
0.0101253
0.00969814
0.00934983
0.00890677
5.9985e-05
6.00027e-05
5.99991e-05
6.0004e-05
6.00099e-05
6.00083e-05
6.00068e-05
6.00057e-05
6.00051e-05
6.00051e-05
6.00042e-05
6.0004e-05
6.00047e-05
6.0003e-05
6.00018e-05
6.00058e-05
6.00048e-05
5.9996e-05
6.00007e-05
6.00193e-05
6.00164e-05
5.99768e-05
5.99647e-05
6.00088e-05
6.00236e-05
5.99588e-05
5.99836e-05
6.01081e-05
5.99923e-05
5.97804e-05
6.00521e-05
6.04194e-05
5.99843e-05
5.9293e-05
5.97137e-05
6.07952e-05
6.05609e-05
5.90713e-05
5.91635e-05
6.20415e-05
6.42646e-05
6.14746e-05
5.30903e-05
4.43044e-05
4.47223e-05
6.17175e-05
8.50389e-05
6.71996e-05
0.00116872
0.00536736
0.00816641
0.00996262
0.0111125
0.0117867
0.0120917
0.0121147
0.0119316
0.0116097
0.0112065
0.0107681
0.0103286
0.00991515
0.00953658
0.0092444
0.00886027
6.00068e-05
6.00097e-05
6.00094e-05
6.00012e-05
6.00095e-05
6.00084e-05
6.00074e-05
6.00062e-05
6.00054e-05
6.00052e-05
6.00045e-05
6.00036e-05
6.00041e-05
6.0004e-05
6.00022e-05
6.00037e-05
6.00065e-05
6.00004e-05
5.99959e-05
6.00068e-05
6.00237e-05
6.00037e-05
5.99737e-05
5.99892e-05
6.00244e-05
5.99843e-05
5.99485e-05
6.00678e-05
6.00956e-05
5.98399e-05
5.98409e-05
6.03221e-05
6.03581e-05
5.9573e-05
5.92614e-05
6.02478e-05
6.0964e-05
5.98072e-05
5.84165e-05
5.9919e-05
6.38405e-05
6.56156e-05
6.0785e-05
4.91684e-05
3.78106e-05
3.91772e-05
5.94045e-05
7.92247e-05
0.000353848
0.00415791
0.00746124
0.00951853
0.0108144
0.0116035
0.0120116
0.012123
0.0120105
0.0117403
0.011372
0.0109556
0.0105302
0.0101231
0.00975595
0.00943216
0.00919852
0.00887093
6.00274e-05
6.00173e-05
6.00176e-05
6.00032e-05
6.00077e-05
6.00073e-05
6.00074e-05
6.00065e-05
6.00056e-05
6.0005e-05
6.00047e-05
6.00037e-05
6.00035e-05
6.0004e-05
6.00025e-05
6.00016e-05
6.00056e-05
6.00039e-05
5.99956e-05
5.99967e-05
6.00191e-05
6.00211e-05
5.99923e-05
5.9984e-05
6.00185e-05
6.00139e-05
5.99472e-05
5.99992e-05
6.01269e-05
5.99726e-05
5.97478e-05
6.00691e-05
6.05035e-05
6.00624e-05
5.92401e-05
5.95795e-05
6.08085e-05
6.07034e-05
5.87982e-05
5.81042e-05
6.11532e-05
6.5952e-05
6.71422e-05
5.95772e-05
4.40665e-05
3.09785e-05
3.69306e-05
7.05031e-05
0.000134141
0.00277089
0.00659783
0.00900613
0.0104884
0.0113914
0.0118971
0.0120985
0.0120627
0.0118522
0.0115259
0.0111367
0.0107275
0.0103304
0.00996693
0.00965288
0.00938683
0.00920983
0.00893764
6.00322e-05
6.00223e-05
6.00185e-05
6.00081e-05
6.0005e-05
6.00055e-05
6.00067e-05
6.00066e-05
6.00056e-05
6.00049e-05
6.00047e-05
6.00041e-05
6.00033e-05
6.00035e-05
6.00025e-05
6e-05
6.00032e-05
6.00052e-05
5.99985e-05
5.9993e-05
6.00087e-05
6.00245e-05
6.00075e-05
5.99886e-05
6.00091e-05
6.00326e-05
5.99741e-05
5.99456e-05
6.0083e-05
6.00927e-05
5.98045e-05
5.98191e-05
6.03639e-05
6.04684e-05
5.96329e-05
5.91808e-05
6.01893e-05
6.1157e-05
5.99567e-05
5.76981e-05
5.81143e-05
6.27485e-05
6.86094e-05
6.89606e-05
5.82694e-05
3.95436e-05
2.88521e-05
5.20917e-05
0.000136306
0.00159175
0.005608
0.00838416
0.0101199
0.0111569
0.0117541
0.0120405
0.0120842
0.0119404
0.0116642
0.0113086
0.01092
0.0105345
0.0101779
0.0098656
0.00960825
0.00939846
0.00927718
0.00906238
6.00182e-05
6.00232e-05
6.00122e-05
6.00125e-05
6.0003e-05
6.00039e-05
6.00057e-05
6.00064e-05
6.00057e-05
6.00048e-05
6.00047e-05
6.00045e-05
6.00036e-05
6.0003e-05
6.00025e-05
6e-05
6.0001e-05
6.00042e-05
6.00018e-05
5.99954e-05
5.99988e-05
6.00166e-05
6.00135e-05
5.99959e-05
5.99991e-05
6.00331e-05
6.00099e-05
5.99338e-05
6.00041e-05
6.01375e-05
5.99539e-05
5.97087e-05
6.0054e-05
6.05742e-05
6.0181e-05
5.92587e-05
5.94888e-05
6.0889e-05
6.10687e-05
5.87773e-05
5.66089e-05
5.83648e-05
6.49475e-05
7.20994e-05
7.14477e-05
5.78055e-05
3.77566e-05
3.67849e-05
0.00010675
0.000932024
0.00462796
0.00765006
0.00967851
0.0108961
0.0115909
0.0119533
0.0120729
0.012
0.0117816
0.0114675
0.0111054
0.0107352
0.0103864
0.0100787
0.00982181
0.00962022
0.00946589
0.0094022
0.00924327
5.99954e-05
6.00199e-05
6.00034e-05
6.00143e-05
6.00029e-05
6.00035e-05
6.00048e-05
6.00062e-05
6.00058e-05
6.0005e-05
6.00047e-05
6.00046e-05
6.00039e-05
6.0003e-05
6.00026e-05
6.00012e-05
6.00001e-05
6.00028e-05
6.00034e-05
5.99998e-05
5.99934e-05
6.00043e-05
6.00114e-05
6.00013e-05
5.99919e-05
6.00187e-05
6.00345e-05
5.99623e-05
5.9942e-05
6.00986e-05
6.00972e-05
5.97752e-05
5.97706e-05
6.0362e-05
6.05622e-05
5.97246e-05
5.91189e-05
6.01045e-05
6.14308e-05
6.04814e-05
5.73327e-05
5.55515e-05
5.89828e-05
6.80337e-05
7.64265e-05
7.44989e-05
5.70789e-05
3.45022e-05
5.1292e-05
0.000563347
0.00372822
0.00688046
0.00914556
0.0105891
0.0114108
0.0118459
0.0120313
0.0120275
0.0118724
0.0116081
0.01128
0.0109303
0.0105924
0.0102898
0.0100359
0.00983405
0.0096876
0.00959049
0.00958252
0.00947604
5.99789e-05
6.00126e-05
5.99985e-05
6.00138e-05
6.00049e-05
6.00046e-05
6.00048e-05
6.00059e-05
6.00059e-05
6.00053e-05
6.00046e-05
6.00045e-05
6.00042e-05
6.00033e-05
6.00029e-05
6.00026e-05
6.00006e-05
6.00015e-05
6.00042e-05
6.00026e-05