/*--------------------------------*- C++ -*----------------------------------*\
  =========                 |
  \\      /  F ield         | OpenFOAM: The Open Source CFD Toolbox
   \\    /   O peration     | Website:  https://openfoam.org
    \\  /    A nd           | Version:  dev
     \\/     M anipulation  |
\*---------------------------------------------------------------------------*/
FoamFile
{
    version     2.0;
    format      ascii;
    class       surfaceScalarField;
    location    "500";
    object      phi;
}
// * * * * * * * * * * * * * * * * * * * * * * * * * * * * * * * * * * * * * //

dimensions      [0 3 -1 0 0 0 0];

internalField   nonuniform List<scalar> 
58294
(
-0.473347
2.12609e-05
-0.473353
2.00157e-05
-0.429564
2.07283e-05
-0.473356
1.67275e-05
-0.429562
1.88849e-05
-0.389822
9.85823e-06
-0.473356
1.34666e-05
-0.429561
1.5693e-05
-0.389809
6.55631e-06
-0.353785
6.37831e-06
-0.473353
1.0849e-05
-0.429561
1.34463e-05
-0.389802
8.4582e-06
-0.353785
6.65872e-06
-0.321071
7.76474e-06
-0.47335
9.41011e-06
-0.429562
1.18973e-05
-0.389801
1.25721e-05
-0.353788
1.17312e-05
-0.321075
1.14065e-05
-0.291378
6.59427e-06
-0.473347
9.3189e-06
-0.429564
1.1424e-05
-0.389806
1.70946e-05
-0.353793
1.71651e-05
-0.32108
1.68293e-05
-0.291378
1.08056e-05
-0.264424
4.51762e-06
-0.473346
1.0115e-05
-0.429567
1.18219e-05
-0.389816
2.06292e-05
-0.353798
2.16979e-05
-0.321084
2.08465e-05
-0.291376
1.47953e-05
-0.264422
8.55944e-06
-0.239964
5.86903e-07
-0.473346
1.10889e-05
-0.429569
1.27349e-05
-0.389826
2.21952e-05
-0.353801
2.4264e-05
-0.321085
2.31045e-05
-0.291373
1.82092e-05
-0.264419
1.18244e-05
-0.23996
4.61037e-06
-0.217759
-4.04797e-06
-0.473348
1.14561e-05
-0.429572
1.34562e-05
-0.389835
2.16267e-05
-0.353803
2.45384e-05
-0.321085
2.36031e-05
-0.29137
2.06371e-05
-0.264416
1.52788e-05
-0.239956
7.92331e-06
-0.217754
3.00852e-08
-0.197611
-9.30294e-06
-0.47335
1.07587e-05
-0.429574
1.35198e-05
-0.389841
1.95078e-05
-0.353805
2.29183e-05
-0.321083
2.27962e-05
-0.291369
2.2059e-05
-0.264413
1.83454e-05
-0.239953
1.19869e-05
-0.21775
3.72973e-06
-0.197606
-5.03422e-06
-0.179326
-1.47691e-05
-0.473351
8.90627e-06
-0.429576
1.25455e-05
-0.389844
1.6697e-05
-0.353806
2.03456e-05
-0.321082
2.1533e-05
-0.291369
2.28374e-05
-0.264412
2.10059e-05
-0.23995
1.60836e-05
-0.217746
8.55683e-06
-0.197601
-7.78425e-07
-0.179321
-1.0224e-05
-0.162731
-2.02663e-05
-0.473351
6.26071e-06
-0.429577
1.06617e-05
-0.389845
1.40962e-05
-0.353807
1.77629e-05
-0.321082
2.03747e-05
-0.291371
2.33112e-05
-0.264413
2.33057e-05
-0.239949
2.00533e-05
-0.217744
1.36443e-05
-0.197597
4.83877e-06
-0.179316
-5.43332e-06
-0.162726
-1.54116e-05
-0.147673
-2.57163e-05
-0.473349
3.43071e-06
-0.429579
8.15992e-06
-0.389847
1.22075e-05
-0.353809
1.59132e-05
-0.321084
1.97476e-05
-0.291374
2.38067e-05
-0.264415
2.53719e-05
-0.23995
2.37903e-05
-0.217743
1.87772e-05
-0.197595
1.0865e-05
-0.179312
8.7119e-07
-0.162721
-1.01266e-05
-0.147668
-2.0512e-05
-0.13401
-3.10414e-05
-0.473347
1.14888e-06
-0.429581
5.65511e-06
-0.38985
1.12094e-05
-0.353811
1.50513e-05
-0.321087
1.96085e-05
-0.291379
2.43387e-05
-0.264418
2.71516e-05
-0.239952
2.71618e-05
-0.217743
2.36969e-05
-0.197593
1.70115e-05
-0.179309
7.67902e-06
-0.162717
-3.28472e-06
-0.147664
-1.48012e-05
-0.134005
-2.5535e-05
-0.121607
-3.6215e-05
-0.473343
1.10322e-08
-0.429584
3.65861e-06
-0.389855
1.0837e-05
-0.353815
1.5032e-05
-0.321092
1.98083e-05
-0.291384
2.48674e-05
-0.264422
2.86318e-05
-0.239955
3.00842e-05
-0.217744
2.82407e-05
-0.197592
2.29913e-05
-0.179307
1.46896e-05
-0.162714
4.13328e-06
-0.147659
-7.53633e-06
-0.134
-1.94102e-05
-0.121602
-3.04337e-05
-0.110354
-4.11359e-05
-0.473341
3.52957e-07
-0.429586
2.64428e-06
-0.389862
1.07208e-05
-0.35382
1.5377e-05
-0.321097
1.9968e-05
-0.291389
2.51562e-05
-0.264427
2.96639e-05
-0.239958
3.24324e-05
-0.217746
3.22316e-05
-0.197592
2.85707e-05
-0.179305
2.15661e-05
-0.162711
1.18256e-05
-0.147655
3.50311e-07
-0.133996
-1.18088e-05
-0.121598
-2.39619e-05
-0.11035
-3.51735e-05
-0.100143
-4.5791e-05
-0.47334
2.10548e-06
-0.429589
2.73065e-06
-0.38987
1.0389e-05
-0.353825
1.55261e-05
-0.321101
1.98181e-05
-0.291394
2.50529e-05
-0.264432
3.01921e-05
-0.239963
3.41459e-05
-0.217749
3.55601e-05
-0.197594
3.36005e-05
-0.179305
2.81122e-05
-0.162709
1.9486e-05
-0.147652
8.57711e-06
-0.133992
-3.56166e-06
-0.121594
-1.60779e-05
-0.110345
-2.83429e-05
-0.100139
-3.96814e-05
-0.0908769
-5.00909e-05
-0.473342
4.82268e-06
-0.42959
3.81756e-06
-0.389877
9.5811e-06
-0.353829
1.49843e-05
-0.321105
1.90872e-05
-0.291399
2.43818e-05
-0.264437
3.01209e-05
-0.239968
3.51817e-05
-0.217753
3.81733e-05
-0.197596
3.7978e-05
-0.179305
3.41492e-05
-0.162707
2.68793e-05
-0.14765
1.68424e-05
-0.133988
5.06298e-06
-0.12159
-7.53078e-06
-0.110341
-2.02483e-05
-0.100134
-3.25358e-05
-0.0908726
-4.39527e-05
-0.0824688
-5.41092e-05
-0.473346
7.75092e-06
-0.429591
5.46336e-06
-0.389881
8.16492e-06
-0.353833
1.34925e-05
-0.321108
1.77012e-05
-0.291403
2.31322e-05
-0.264442
2.94628e-05
-0.239973
3.55456e-05
-0.217758
4.00213e-05
-0.1976
4.16049e-05
-0.179307
3.95694e-05
-0.162707
3.38618e-05
-0.147648
2.4966e-05
-0.133985
1.3814e-05
-0.121586
1.40944e-06
-0.110337
-1.14801e-05
-0.10013
-2.42852e-05
-0.0908687
-3.64431e-05
-0.0824648
-4.79924e-05
-0.0748321
-5.77674e-05
-0.473352
1.00499e-05
-0.42959
7.13114e-06
-0.389882
6.28386e-06
-0.353836
1.10712e-05
-0.32111
1.56587e-05
-0.291407
2.13204e-05
-0.264447
2.82267e-05
-0.239979
3.52466e-05
-0.217763
4.11211e-05
-0.197604
4.44681e-05
-0.179309
4.43044e-05
-0.162708
4.03157e-05
-0.147647
3.27713e-05
-0.133983
2.24901e-05
-0.121583
1.0505e-05
-0.110333
-2.32208e-06
-0.100127
-1.53519e-05
-0.0908648
-2.81151e-05
-0.0824611
-4.0117e-05
-0.0748283
-5.18418e-05
-0.0679106
-6.11417e-05
-0.473359
1.09962e-05
-0.429589
8.22008e-06
-0.389879
4.17165e-06
-0.353838
8.01379e-06
-0.321112
1.31368e-05
-0.29141
1.9095e-05
-0.264453
2.64986e-05
-0.239985
3.43364e-05
-0.217769
4.14614e-05
-0.197609
4.65012e-05
-0.179313
4.82549e-05
-0.16271
4.612e-05
-0.147646
4.01423e-05
-0.133981
3.09697e-05
-0.12158
1.96146e-05
-0.11033
7.03275e-06
-0.100123
-6.05292e-06
-0.0908611
-1.90933e-05
-0.0824575
-3.1738e-05
-0.0748248
-4.35053e-05
-0.0679069
-5.54913e-05
-0.0616225
-6.41213e-05
-0.473364
1.02247e-05
-0.429586
8.32752e-06
-0.389873
2.18264e-06
-0.353838
4.79909e-06
-0.321114
1.03689e-05
-0.291413
1.66114e-05
-0.264458
2.43649e-05
-0.239992
3.28511e-05
-0.217776
4.10786e-05
-0.197616
4.77018e-05
-0.179318
5.13803e-05
-0.162713
5.12132e-05
-0.147647
4.69831e-05
-0.13398
3.9133e-05
-0.121577
2.85955e-05
-0.110327
1.64189e-05
-0.100119
3.44061e-06
-0.0908574
-9.74144e-06
-0.0824539
-2.2653e-05
-0.0748214
-3.513e-05
-0.0679037
-4.66844e-05
-0.0616191
-5.89631e-05
-0.0559219
-6.68174e-05
-0.473369
7.80573e-06
-0.429583
7.28134e-06
-0.389865
5.89883e-07
-0.353838
1.95721e-06
-0.321117
7.68449e-06
-0.291417
1.40871e-05
-0.264463
2.19663e-05
-0.239998
3.08773e-05
-0.217783
3.99895e-05
-0.197623
4.80421e-05
-0.179324
5.35912e-05
-0.162717
5.54733e-05
-0.147649
5.31609e-05
-0.13398
4.68547e-05
-0.121576
3.73637e-05
-0.110324
2.57647e-05
-0.100116
1.30191e-05
-0.0908538
-1.72909e-07
-0.0824503
-1.32995e-05
-0.0748181
-2.60154e-05
-0.0679005
-3.83282e-05
-0.0616161
-4.95898e-05
-0.0559186
-6.22499e-05
-0.0507485
-6.91036e-05
-0.47337
4.26019e-06
-0.42958
5.25205e-06
-0.389857
-3.93306e-07
-0.353837
-6.41283e-08
-0.321121
5.38085e-06
-0.291421
1.17082e-05
-0.264469
1.94382e-05
-0.240005
2.85056e-05
-0.217791
3.82667e-05
-0.19763
4.7546e-05
-0.179331
5.48692e-05
-0.162722
5.88298e-05
-0.147652
5.85939e-05
-0.133981
5.40549e-05
-0.121575
4.58357e-05
-0.110321
3.49908e-05
-0.100113
2.25866e-05
-0.0908503
9.47288e-06
-0.0824468
-3.75186e-06
-0.0748147
-1.67054e-05
-0.0678974
-2.91842e-05
-0.0616131
-4.13153e-05
-0.0559159
-5.2304e-05
-0.0507454
-6.53591e-05
-0.0460506
-7.11269e-05
-0.47337
3.7733e-07
-0.429579
2.64376e-06
-0.389852
-7.38955e-07
-0.353837
-1.02329e-06
-0.321124
3.71109e-06
-0.291425
9.65454e-06
-0.264474
1.69438e-05
-0.240011
2.58779e-05
-0.217798
3.60003e-05
-0.197638
4.62556e-05
-0.179339
5.51759e-05
-0.162728
6.11951e-05
-0.147657
6.3142e-05
-0.133983
6.0587e-05
-0.121575
5.38865e-05
-0.11032
4.40127e-05
-0.10011
3.21139e-05
-0.0908468
1.91723e-05
-0.0824432
5.90411e-06
-0.0748112
-7.20414e-06
-0.0678941
-1.99327e-05
-0.0616101
-3.21635e-05
-0.0559131
-4.41208e-05
-0.0507429
-5.47431e-05
-0.0460477
-6.82859e-05
-0.0417895
-7.27715e-05
-0.473367
-2.99949e-06
-0.429578
2.25011e-08
-0.389848
-5.21733e-07
-0.353836
-9.28866e-07
-0.321128
2.77984e-06
-0.29143
8.02641e-06
-0.264479
1.46215e-05
-0.240017
2.31429e-05
-0.217806
3.33346e-05
-0.197646
4.42762e-05
-0.179347
5.45616e-05
-0.162736
6.2526e-05
-0.147662
6.67247e-05
-0.133986
6.6342e-05
-0.121575
6.14291e-05
-0.110318
5.27766e-05
-0.100107
4.15588e-05
-0.0908436
2.88899e-05
-0.0824396
1.56153e-05
-0.0748077
2.36659e-06
-0.0678908
-1.05308e-05
-0.0616071
-2.29928e-05
-0.0559103
-3.49525e-05
-0.0507403
-4.67186e-05
-0.0460455
-5.6986e-05
-0.0417868
-7.10546e-05
-0.0379228
-7.42154e-05
-0.473363
-5.22464e-06
-0.429579
-2.09764e-06
-0.389848
5.0122e-08
-0.353837
-3.38316e-08
-0.321132
2.54874e-06
-0.291434
6.86361e-06
-0.264483
1.25877e-05
-0.240023
2.04707e-05
-0.217813
3.04337e-05
-0.197655
4.17415e-05
-0.179356
5.30935e-05
-0.162744
6.28173e-05
-0.147669
6.92394e-05
-0.13399
7.11855e-05
-0.121577
6.83029e-05
-0.110318
6.11513e-05
-0.100105
5.0838e-05
-0.0908406
3.85873e-05
-0.0824362
2.54004e-05
-0.0748041
1.20298e-05
-0.0678874
-1.05593e-06
-0.0616039
-1.36817e-05
-0.0559075
-2.58603e-05
-0.0507377
-3.75523e-05
-0.0460431
-4.91258e-05
-0.0417848
-5.89606e-05
-0.0379202
-7.36771e-05
-0.0344131
-7.53348e-05
-0.473359
-6.00042e-06
-0.429581
-3.35146e-06
-0.389851
7.56992e-07
-0.353838
1.25933e-06
-0.321134
2.81937e-06
-0.291438
6.10402e-06
-0.264487
1.09016e-05
-0.240029
1.79947e-05
-0.21782
2.74818e-05
-0.197663
3.88301e-05
-0.179365
5.09132e-05
-0.162753
6.21218e-05
-0.147677
7.06531e-05
-0.133996
7.49919e-05
-0.121581
7.43874e-05
-0.110319
6.90295e-05
-0.100104
5.98947e-05
-0.0908381
4.82507e-05
-0.0824328
3.52527e-05
-0.0748005
2.17934e-05
-0.0678838
8.47891e-06
-0.0616006
-4.35951e-06
-0.0559045
-1.66726e-05
-0.050735
-2.8557e-05
-0.0460407
-3.99576e-05
-0.0417826
-5.13255e-05
-0.0379183
-6.07698e-05
-0.0344106
-7.61742e-05
-0.0312282
-7.63096e-05
-0.473355
-5.43115e-06
-0.429584
-3.64828e-06
-0.389856
1.37235e-06
-0.35384
2.50831e-06
-0.321136
3.31219e-06
-0.29144
5.62894e-06
-0.264491
9.55885e-06
-0.240033
1.58196e-05
-0.217827
2.46333e-05
-0.197672
3.57246e-05
-0.179374
4.81766e-05
-0.162763
6.05399e-05
-0.147686
7.09668e-05
-0.134003
7.76891e-05
-0.121585
7.95255e-05
-0.110321
7.6258e-05
-0.100104
6.85893e-05
-0.090836
5.77884e-05
-0.0824297
4.51284e-05
-0.0747969
3.16581e-05
-0.0678802
1.8141e-05
-0.0615972
5.03345e-06
-0.0559013
-7.48711e-06
-0.0507322
-1.94743e-05
-0.0460382
-3.1058e-05
-0.0417803
-4.21683e-05
-0.0379163
-5.33492e-05
-0.0344089
-6.2355e-05
-0.0312259
-7.85491e-05
-0.0283387
-7.70023e-05
-0.473353
-3.92966e-06
-0.429586
-3.13253e-06
-0.389861
1.75745e-06
-0.353842
3.35887e-06
-0.321138
3.72468e-06
-0.291442
5.27498e-06
-0.264494
8.49561e-06
-0.240038
1.39674e-05
-0.217833
2.20143e-05
-0.197679
3.25945e-05
-0.179384
4.50788e-05
-0.162773
5.82193e-05
-0.147695
7.02486e-05
-0.134011
7.92221e-05
-0.121591
8.35933e-05
-0.110324
8.26707e-05
-0.100104
7.68116e-05
-0.0908345
6.7131e-05
-0.0824269
5.50087e-05
-0.0747934
4.16421e-05
-0.0678765
2.79553e-05
-0.0615936
1.45468e-05
-0.055898
1.71164e-06
-0.0507293
-1.04668e-05
-0.0460355
-2.21113e-05
-0.041778
-3.33811e-05
-0.0379143
-4.41926e-05
-0.0344071
-5.51992e-05
-0.0312244
-6.38172e-05
-0.0283364
-8.08087e-05
-0.0257163
-7.75873e-05
-0.473352
-2.06347e-06
-0.429588
-2.13813e-06
-0.389866
1.8383e-06
-0.353844
3.61749e-06
-0.321138
3.83222e-06
-0.291443
4.89106e-06
-0.264496
7.61331e-06
-0.240042
1.24122e-05
-0.217839
1.96702e-05
-0.197687
2.958e-05
-0.179393
4.17841e-05
-0.162783
5.5335e-05
-0.147706
6.86054e-05
-0.134021
7.96161e-05
-0.121598
8.65068e-05
-0.110328
8.81318e-05
-0.100106
8.43875e-05
-0.0908338
7.61533e-05
-0.0824246
6.4797e-05
-0.0747901
5.16886e-05
-0.0678728
3.79109e-05
-0.0615898
2.42139e-05
-0.0558945
1.10331e-05
-0.0507261
-1.44981e-06
-0.0460327
-1.32561e-05
-0.0417756
-2.45494e-05
-0.0379122
-3.55053e-05
-0.0344052
-4.60447e-05
-0.0312227
-5.69062e-05
-0.0283351
-6.50922e-05
-0.0257141
-8.29482e-05
-0.023337
-7.79297e-05
-0.473351
-3.66538e-07
-0.429589
-1.0394e-06
-0.38987
1.64052e-06
-0.353845
3.2825e-06
-0.321138
3.52809e-06
-0.291444
4.37171e-06
-0.264498
6.79998e-06
-0.240045
1.10748e-05
-0.217844
1.75993e-05
-0.197694
2.67512e-05
-0.179402
3.84613e-05
-0.162793
5.20601e-05
-0.147717
6.61976e-05
-0.134031
7.89285e-05
-0.121607
8.82208e-05
-0.110334
9.2493e-05
-0.100109
9.11541e-05
-0.0908342
8.47067e-05
-0.0824229
7.44294e-05
-0.074787
6.17705e-05
-0.0678691
4.80156e-05
-0.061586
3.40794e-05
-0.0558908
2.05293e-05
-0.0507227
7.66261e-06
-0.0460297
-4.45782e-06
-0.041773
-1.58838e-05
-0.0379099
-2.68129e-05
-0.0344033
-3.7464e-05
-0.031221
-4.77438e-05
-0.0283336
-5.84714e-05
-0.025713
-6.62685e-05
-0.023335
-8.49676e-05
-0.0211768
-7.81996e-05
-0.473352
7.92989e-07
-0.429589
-1.5987e-07
-0.389872
1.23243e-06
-0.353846
2.50406e-06
-0.321138
2.84903e-06
-0.291444
3.68699e-06
-0.2645
5.9742e-06
-0.240048
9.85969e-06
-0.217848
1.57485e-05
-0.197701
2.41357e-05
-0.17941
3.51972e-05
-0.162803
4.85737e-05
-0.147728
6.31809e-05
-0.134042
7.7286e-05
-0.121617
8.87494e-05
-0.110342
9.56765e-05
-0.100113
9.69577e-05
-0.0908356
9.26446e-05
-0.0824219
8.37669e-05
-0.0747844
7.18106e-05
-0.0678655
5.8212e-05
-0.0615821
4.41089e-05
-0.055887
3.02147e-05
-0.0507191
1.69304e-05
-0.0460265
4.42874e-06
-0.0417701
-7.28086e-06
-0.0379075
-1.83043e-05
-0.0344012
-2.88786e-05
-0.0312192
-3.92486e-05
-0.028332
-4.93014e-05
-0.0257115
-5.99138e-05
-0.0233339
-6.72819e-05
-0.0211749
-8.6864e-05
-0.0192174
-7.82744e-05
-0.473352
1.28016e-06
-0.429589
3.29118e-07
-0.389873
7.27699e-07
-0.353846
1.51779e-06
-0.321137
1.93624e-06
-0.291444
2.87681e-06
-0.264501
5.09684e-06
-0.240051
8.68707e-06
-0.217853
1.40417e-05
-0.197707
2.17167e-05
-0.179418
3.20613e-05
-0.162813
4.49908e-05
-0.147739
5.9749e-05
-0.134054
7.48168e-05
-0.121628
8.81596e-05
-0.110351
9.76206e-05
-0.100119
0.000101657
-0.0908385
9.97784e-05
-0.0824219
9.2668e-05
-0.0747824
8.17148e-05
-0.0678622
6.84862e-05
-0.0615782
5.43076e-05
-0.055883
4.01108e-05
-0.0507153
2.64176e-05
-0.0460231
1.3476e-05
-0.0417671
1.37638e-06
-0.0379048
-9.92833e-06
-0.034399
-2.0555e-05
-0.0312173
-3.07869e-05
-0.0283304
-4.08983e-05
-0.0257101
-5.07338e-05
-0.0233326
-6.12331e-05
-0.021174
-6.82102e-05
-0.0192156
-8.86425e-05
-0.0174388
-7.83169e-05
-0.473352
1.16167e-06
-0.429588
4.07098e-07
-0.389873
2.30684e-07
-0.353846
5.6172e-07
-0.321136
9.83747e-07
-0.291444
2.0338e-06
-0.264502
4.18132e-06
-0.240053
7.51461e-06
-0.217856
1.24162e-05
-0.197712
1.94467e-05
-0.179425
2.90706e-05
-0.162822
4.14121e-05
-0.14775
5.60256e-05
-0.134066
7.17099e-05
-0.121639
8.65463e-05
-0.110361
9.83467e-05
-0.100127
0.000105149
-0.0908428
0.00010596
-0.0824231
0.000100973
-0.0747811
9.1376e-05
-0.0678592
7.8756e-05
-0.0615744
6.46425e-05
-0.0558789
5.01847e-05
-0.0507113
3.60969e-05
-0.0460194
2.27149e-05
-0.0417638
1.01673e-05
-0.037902
-1.50882e-06
-0.0343965
-1.2373e-05
-0.0312153
-2.26054e-05
-0.0283286
-3.25242e-05
-0.0257086
-4.24014e-05
-0.0233313
-5.20436e-05
-0.0211728
-6.24381e-05
-0.0192148
-6.89964e-05
-0.0174371
-9.03096e-05
-0.0158252
-7.82219e-05
-0.473352
6.36329e-07
-0.429587
1.85157e-07
-0.389872
-1.62065e-07
-0.353846
-1.83871e-07
-0.321136
1.68919e-07
-0.291445
1.26246e-06
-0.264504
3.27851e-06
-0.240056
6.34314e-06
-0.21786
1.08372e-05
-0.197717
1.72905e-05
-0.179432
2.62153e-05
-0.162831
3.78977e-05
-0.147761
5.21474e-05
-0.134078
6.80908e-05
-0.121652
8.40705e-05
-0.110372
9.78832e-05
-0.100136
0.000107383
-0.0908486
0.000111026
-0.0824257
0.000108501
-0.0747807
0.00010063
-0.0678568
8.89383e-05
-0.0615707
7.50824e-05
-0.0558747
6.04603e-05
-0.0507071
4.59883e-05
-0.0460154
3.21638e-05
-0.0417602
1.9167e-05
-0.0378988
7.0446e-06
-0.0343939
-4.18744e-06
-0.031213
-1.46397e-05
-0.0283267
-2.45074e-05
-0.025707
-3.41328e-05
-0.0233299
-4.37926e-05
-0.0211716
-5.32434e-05
-0.0192137
-6.35315e-05
-0.0174364
-6.97129e-05
-0.0158236
-9.1876e-05
-0.0143607
-7.81299e-05
-0.473352
-6.21669e-08
-0.429586
-1.73984e-07
-0.389872
-3.9313e-07
-0.353845
-6.3024e-07
-0.321136
-3.9308e-07
-0.291445
6.48882e-07
-0.264505
2.45366e-06
-0.240058
5.21267e-06
-0.217863
9.30709e-06
-0.197721
1.52275e-05
-0.179438
2.34867e-05
-0.162839
3.44691e-05
-0.147771
4.82066e-05
-0.13409
6.41177e-05
-0.121664
8.08504e-05
-0.110385
9.63634e-05
-0.100146
0.000108332
-0.0908561
0.000114881
-0.0824297
0.000115081
-0.0747816
0.000109326
-0.0678551
9.89202e-05
-0.0615673
8.5583e-05
-0.0558705
7.09117e-05
-0.0507027
5.60858e-05
-0.0460112
4.17964e-05
-0.0417564
2.83393e-05
-0.0378955
1.57732e-05
-0.0343909
4.10173e-06
-0.0312105
-6.68565e-06
-0.0283246
-1.6716e-05
-0.0257053
-2.62364e-05
-0.0233285
-3.55956e-05
-0.0211704
-4.50537e-05
-0.0192126
-5.43283e-05
-0.0174354
-6.45206e-05
-0.015823
-7.03199e-05
-0.0143593
-9.33498e-05
-0.0130317
-7.79437e-05
-0.473351
-7.34963e-07
-0.429586
-5.12798e-07
-0.389871
-4.31392e-07
-0.353845
-7.73249e-07
-0.321136
-6.72242e-07
-0.291446
2.32826e-07
-0.264506
1.76367e-06
-0.240059
4.17635e-06
-0.217865
7.86121e-06
-0.197725
1.32653e-05
-0.179444
2.08844e-05
-0.162847
3.1153e-05
-0.147781
4.42632e-05
-0.134102
5.99138e-05
-0.121677
7.70488e-05
-0.110398
9.38672e-05
-0.100158
0.00010807
-0.0908652
0.000117425
-0.0824354
0.000120559
-0.0747837
0.000117264
-0.0678543
0.000108548
-0.0615645
9.60455e-05
-0.0558664
8.15229e-05
-0.0506982
6.64105e-05
-0.0460068
5.16529e-05
-0.0417523
3.76999e-05
-0.0378918
2.46802e-05
-0.0343877
1.2579e-05
-0.0312078
1.36801e-06
-0.0283224
-8.9798e-06
-0.0257033
-1.86371e-05
-0.0233269
-2.78425e-05
-0.021169
-3.69491e-05
-0.0192115
-4.62137e-05
-0.0174345
-5.53155e-05
-0.0158221
-6.54196e-05
-0.0143587
-7.08802e-05
-0.0130303
-9.47378e-05
-0.0118258
-7.77734e-05
-0.47335
-1.25402e-06
-0.429586
-7.35662e-07
-0.389872
-2.90748e-07
-0.353845
-6.69483e-07
-0.321136
-7.09633e-07
-0.291446
6.04203e-09
-0.264507
1.23702e-06
-0.240061
3.28702e-06
-0.217868
6.54431e-06
-0.197729
1.14351e-05
-0.179449
1.84213e-05
-0.162854
2.79685e-05
-0.14779
4.03762e-05
-0.134113
5.55706e-05
-0.12169
7.28132e-05
-0.110411
9.05571e-05
-0.100171
0.000106636
-0.0908758
0.000118679
-0.0824428
0.00012479
-0.0747875
0.000124281
-0.0678547
0.000117646
-0.0615623
0.000106367
-0.0558626
9.22531e-05
-0.0506937
7.69787e-05
-0.0460021
6.17499e-05
-0.0417479
4.72481e-05
-0.0378878
3.37285e-05
-0.0343842
2.11923e-05
-0.0312048
9.57411e-06
-0.0283198
-1.17613e-06
-0.0257012
-1.11092e-05
-0.0233251
-2.03925e-05
-0.0211676
-2.92974e-05
-0.0192103
-3.81704e-05
-0.0174334
-4.72531e-05
-0.0158212
-5.62023e-05
-0.0143579
-6.62351e-05
-0.0130298
-7.13633e-05
-0.0118245
-9.60387e-05
-0.0107318
-7.75309e-05
-0.473349
-1.56423e-06
-0.429586
-8.08944e-07
-0.389872
-1.27212e-08
-0.353845
-4.04063e-07
-0.321136
-5.89254e-07
-0.291447
-7.73711e-08
-0.264508
8.6938e-07
-0.240062
2.57198e-06
-0.21787
5.40249e-06
-0.197732
9.7717e-06
-0.179454
1.61298e-05
-0.162861
2.49427e-05
-0.147799
3.65951e-05
-0.134124
5.11848e-05
-0.121703
6.82572e-05
-0.110425
8.65804e-05
-0.100184
0.000104161
-0.0908878
0.000118614
-0.0824518
0.000127726
-0.0747929
0.000130179
-0.0678565
0.00012603
-0.061561
0.000116374
-0.0558593
0.000103013
-0.0506892
8.77678e-05
-0.0459973
7.2127e-05
-0.0417432
5.70393e-05
-0.0378835
4.29524e-05
-0.0343804
2.99398e-05
-0.0312015
1.79174e-05
-0.028317
6.78928e-06
-0.0256989
-3.51872e-06
-0.0233232
-1.30568e-05
-0.0211659
-2.20159e-05
-0.0192089
-3.06461e-05
-0.0174323
-3.92927e-05
-0.0158203
-4.82046e-05
-0.0143571
-5.70142e-05
-0.0130291
-6.69854e-05
-0.0118241
-7.18112e-05
-0.0107306
-9.72558e-05
-0.00973898
-7.7314e-05
-0.473348
-1.65725e-06
-0.429587
-7.6039e-07
-0.389874
3.31518e-07
-0.353845
-6.57878e-08
-0.321136
-4.01067e-07
-0.291448
-7.79376e-08
-0.264508
6.30955e-07
-0.240063
2.03041e-06
-0.217872
4.45731e-06
-0.197735
8.3121e-06
-0.179458
1.40352e-05
-0.162867
2.21121e-05
-0.147807
3.29639e-05
-0.134134
4.68367e-05
-0.121715
6.35135e-05
-0.110439
8.20693e-05
-0.100199
0.000100786
-0.090901
0.000117321
-0.0824625
0.000129277
-0.0748
0.000134863
-0.0678598
0.000133485
-0.0615609
0.000125905
-0.0558566
0.000113677
-0.0506849
9.8745e-05
-0.0459923
8.28164e-05
-0.0417382
6.71353e-05
-0.0378789
5.23913e-05
-0.0343763
3.8806e-05
-0.0311979
2.6342e-05
-0.028314
1.48479e-05
-0.0256963
4.19712e-06
-0.023321
-5.68933e-06
-0.0211641
-1.48629e-05
-0.0192075
-2.34934e-05
-0.0174311
-3.18568e-05
-0.0158193
-4.02951e-05
-0.0143563
-4.90551e-05
-0.0130284
-5.77469e-05
-0.0118234
-6.76681e-05
-0.0107302
-7.2202e-05
-0.00973787
-9.83818e-05
-0.00883709
-7.63481e-05
-0.473347
-1.56059e-06
-0.429588
-6.38111e-07
-0.389875
6.59693e-07
-0.353844
2.70228e-07
-0.321136
-2.16655e-07
-0.291448
-5.02082e-08
-0.264509
4.79326e-07
-0.240064
1.63652e-06
-0.217873
3.7047e-06
-0.197738
7.07043e-06
-0.179462
1.21707e-05
-0.162872
1.95008e-05
-0.147814
2.95346e-05
-0.134144
4.25965e-05
-0.121727
5.86919e-05
-0.110452
7.71786e-05
-0.100213
9.66339e-05
-0.0909151
0.000114904
-0.0824746
0.000129469
-0.0748089
0.000138176
-0.0678648
0.000139877
-0.0615621
0.000134728
-0.0558548
0.000124087
-0.0506811
0.000109803
-0.0459874
9.3801e-05
-0.041733
7.75818e-05
-0.0378739
6.21211e-05
-0.0343718
4.78604e-05
-0.031194
3.48596e-05
-0.0283106
2.29749e-05
-0.0256935
1.20055e-05
-0.0233186
1.813e-06
-0.0211621
-7.68128e-06
-0.0192058
-1.65091e-05
-0.0174297
-2.48538e-05
-0.0158182
-3.29723e-05
-0.0143554
-4.12162e-05
-0.0130276
-4.98407e-05
-0.0118227
-5.84277e-05
-0.0107296
-6.83013e-05
-0.00973751
-7.2564e-05
-0.00883665
-9.88405e-05
-0.0080145
-7.20463e-05
-0.473346
-1.31218e-06
-0.42959
-4.92314e-07
-0.389877
8.87826e-07
-0.353844
5.42844e-07
-0.321136
-7.58394e-08
-0.291448
-2.96593e-08
-0.264509
3.75676e-07
-0.240065
1.35009e-06
-0.217875
3.1181e-06
-0.19774
6.03853e-06
-0.179465
1.05448e-05
-0.162877
1.71418e-05
-0.147821
2.63333e-05
-0.134153
3.85366e-05
-0.121738
5.38931e-05
-0.110466
7.20496e-05
-0.100228
9.18788e-05
-0.0909299
0.00011147
-0.0824881
0.000128359
-0.0748195
0.00014008
-0.0678716
0.00014499
-0.0615649
0.000142688
-0.0558541
0.000134034
-0.0506778
0.000120828
-0.0459826
0.000105028
-0.0417276
8.84152e-05
-0.0378685
7.22338e-05
-0.0343668
5.7189e-05
-0.0311896
4.35154e-05
-0.0283069
3.11286e-05
-0.0256903
1.9827e-05
-0.023316
9.36534e-06
-0.0211599
-3.98151e-07
-0.019204
-9.52278e-06
-0.0174282
-1.80304e-05
-0.0158169
-2.60806e-05
-0.0143544
-3.39665e-05
-0.0130268
-4.20399e-05
-0.011822
-5.05481e-05
-0.010729
-5.9042e-05
-0.00973694
-6.88712e-05
-0.00883623
-7.29779e-05
-0.00801809
-9.52673e-05
-0.00725606
-6.50498e-05
-0.473346
-9.64182e-07
-0.42959
-3.60103e-07
-0.389878
9.6696e-07
-0.353844
7.05327e-07
-0.321135
8.07814e-09
-0.291448
-3.00024e-08
-0.26451
2.92418e-07
-0.240066
1.13186e-06
-0.217876
2.65611e-06
-0.197742
5.19051e-06
-0.179468
9.14957e-06
-0.162882
1.5044e-05
-0.147827
2.34015e-05
-0.134161
3.4694e-05
-0.121749
4.92153e-05
-0.110479
6.68084e-05
-0.100243
8.66783e-05
-0.0909452
0.000107185
-0.0825026
0.00012601
-0.0748317
0.000140569
-0.0678802
0.00014873
-0.0615695
0.000149537
-0.0558547
0.000143353
-0.0506754
0.000131622
-0.0459782
0.000116402
-0.0417222
9.96002e-05
-0.0378629
8.2775e-05
-0.0343615
6.68891e-05
-0.0311848
5.24012e-05
-0.0283027
3.93785e-05
-0.0256868
2.76427e-05
-0.0233131
1.6917e-05
-0.0211575
6.93578e-06
-0.0192019
-2.42423e-06
-0.0174265
-1.12052e-05
-0.0158156
-1.94056e-05
-0.0143532
-2.72046e-05
-0.0130259
-3.48853e-05
-0.0118213
-4.28049e-05
-0.0107283
-5.12072e-05
-0.00973638
-5.96164e-05
-0.00883573
-6.93857e-05
-0.00801876
-7.23017e-05
-0.00726478
-8.65593e-05
-0.00656221
-5.75864e-05
-0.473346
-5.75983e-07
-0.429591
-2.58366e-07
-0.389879
8.70569e-07
-0.353844
7.3627e-07
-0.321134
3.63607e-08
-0.291448
-4.91978e-08
-0.26451
2.1597e-07
-0.240067
9.51705e-07
-0.217877
2.27955e-06
-0.197744
4.48577e-06
-0.179471
7.96141e-06
-0.162886
1.32007e-05
-0.147833
2.07498e-05
-0.134169
3.11237e-05
-0.121759
4.47133e-05
-0.110491
6.15863e-05
-0.100257
8.11858e-05
-0.0909608
0.000102219
-0.082518
0.000122568
-0.0748454
0.000139649
-0.0678907
0.000151022
-0.0615759
0.000155124
-0.055857
0.000151773
-0.0506741
0.000142035
-0.0459743
0.000127766
-0.0417169
0.000111094
-0.037857
9.37605e-05
-0.0343558
7.70498e-05
-0.0311796
6.16514e-05
-0.0282981
4.78191e-05
-0.0256829
3.54931e-05
-0.0233098
2.43933e-05
-0.0211548
1.42171e-05
-0.0191997
4.68784e-06
-0.0174247
-4.29755e-06
-0.015814
-1.2752e-05
-0.014352
-2.06691e-05
-0.0130249
-2.82145e-05
-0.0118205
-3.57073e-05
-0.0107277
-4.34923e-05
-0.00973579
-5.17989e-05
-0.00883521
-6.0135e-05
-0.00801876
-6.93917e-05
-0.00727003
-6.70466e-05
-0.00657246
-7.63168e-05
-0.00593073
-5.04904e-05
-0.473345
-1.9794e-07
-0.429592
-1.87838e-07
-0.38988
6.30272e-07
-0.353844
6.2814e-07
-0.321134
1.8288e-08
-0.291448
-8.10848e-08
-0.26451
1.44195e-07
-0.240067
7.90255e-07
-0.217878
1.95793e-06
-0.197745
3.88874e-06
-0.179474
6.94293e-06
-0.162889
1.15938e-05
-0.147838
1.83772e-05
-0.134176
2.7845e-05
-0.121768
4.04631e-05
-0.110503
5.64567e-05
-0.100271
7.55601e-05
-0.0909763
9.67352e-05
-0.082534
0.000118189
-0.0748602
0.000137421
-0.0679029
0.000151808
-0.0615842
0.000159319
-0.055861
0.000159116
-0.0506741
0.000151797
-0.0459713
0.000138988
-0.0417118
0.000122762
-0.0378511
0.000105165
-0.0343497
8.76984e-05
-0.0311739
7.1355e-05
-0.0282931
5.65833e-05
-0.0256786
4.34734e-05
-0.0233062
3.18549e-05
-0.0211518
2.139e-05
-0.0191972
1.17359e-05
-0.0174226
2.62805e-06
-0.0158123
-6.00336e-06
-0.0143506
-1.4154e-05
-0.0130237
-2.18048e-05
-0.0118195
-2.91441e-05
-0.0107269
-3.64737e-05
-0.00973516
-4.41344e-05
-0.00883467
-5.23497e-05
-0.00801832
-6.05849e-05
-0.00727363
-6.58064e-05
-0.00658023
-5.92805e-05
-0.00594074
-6.63137e-05
-0.00535837
-4.41832e-05
-0.473346
9.31612e-08
-0.429592
-1.46135e-07
-0.389881
3.065e-07
-0.353844
4.06175e-07
-0.321133
-3.96712e-08
-0.291448
-1.19186e-07
-0.26451
7.72008e-08
-0.240068
6.4258e-07
-0.217879
1.66908e-06
-0.197747
3.37136e-06
-0.179476
6.0627e-06
-0.162893
1.0188e-05
-0.147843
1.62708e-05
-0.134182
2.48645e-05
-0.121777
3.64993e-05
-0.110514
5.15263e-05
-0.100284
6.98992e-05
-0.0909917
9.09228e-05
-0.0825503
0.000113042
-0.074876
0.000134011
-0.0679166
0.000151127
-0.0615943
0.00016199
-0.0558669
0.000165197
-0.0506757
0.000160707
-0.0459693
0.00014981
-0.0417074
0.000134505
-0.0378452
0.000116903
-0.0343434
9.88573e-05
-0.0311678
8.15811e-05
-0.0282875
6.5795e-05
-0.0256738
5.17479e-05
-0.0233021
3.93952e-05
-0.0211484
2.84833e-05
-0.0191944
1.86099e-05
-0.0174203
9.44313e-06
-0.0158104
7.30956e-07
-0.014349
-7.57068e-06
-0.0130224
-1.54363e-05
-0.0118185
-2.28502e-05
-0.0107261
-2.99829e-05
-0.00973447
-3.71608e-05
-0.0088341
-4.47066e-05
-0.00801783
-5.28421e-05
-0.00727515
-5.90594e-05
-0.00658776
-5.82711e-05
-0.00594872
-5.13077e-05
-0.00536736
-5.73271e-05
-0.00484079
-3.87047e-05
-0.473346
2.72085e-07
-0.429592
-1.27406e-07
-0.389881
-3.52516e-08
-0.353843
1.18762e-07
-0.321132
-1.31097e-07
-0.291448
-1.63483e-07
-0.264511
1.64132e-08
-0.240068
5.06157e-07
-0.21788
1.40854e-06
-0.197748
2.9099e-06
-0.179478
5.29589e-06
-0.162895
8.95689e-06
-0.147847
1.43986e-05
-0.134188
2.2178e-05
-0.121785
3.28411e-05
-0.110524
4.68488e-05
-0.100297
6.43417e-05
-0.0910067
8.48971e-05
-0.0825667
0.000107328
-0.0748926
0.000129572
-0.0679316
0.000149059
-0.0616063
0.000163116
-0.0558747
0.000169829
-0.0506791
0.000168557
-0.0459686
0.000160038
-0.0417036
0.000146094
-0.0378396
0.000128902
-0.034337
0.000110463
-0.0311613
9.23629e-05
-0.0282815
7.55255e-05
-0.0256684
6.04335e-05
-0.0232975
4.71726e-05
-0.0211446
3.55874e-05
-0.0191913
2.53546e-05
-0.0174178
1.60552e-05
-0.0158083
7.34707e-06
-0.0143473
-9.9548e-07
-0.013021
-8.9876e-06
-0.0118173
-1.65957e-05
-0.0107251
-2.37922e-05
-0.0097337
-3.07601e-05
-0.00883347
-3.78021e-05
-0.0080173
-4.52474e-05
-0.0072754
-5.26115e-05
-0.00659398
-5.28548e-05
-0.00595703
-4.99792e-05
-0.00537461
-4.40614e-05
-0.00484854
-4.95823e-05
-0.00437346
-3.40443e-05
-0.473346
3.24346e-07
-0.429591
-1.31506e-07
-0.389881
-3.00657e-07
-0.353843
-1.86469e-07
-0.321132
-2.43156e-07
-0.291448
-2.16188e-07
-0.264511
-4.12086e-08
-0.240069
3.82947e-07
-0.217881
1.17216e-06
-0.197749
2.50082e-06
-0.17948
4.61513e-06
-0.162898
7.87805e-06
-0.147851
1.2739e-05
-0.134193
1.97567e-05
-0.121792
2.94978e-05
-0.110534
4.24645e-05
-0.100309
5.89689e-05
-0.0910212
7.88343e-05
-0.082583
0.000101181
-0.0749095
0.000124306
-0.0679478
0.000145715
-0.06162
0.000162707
-0.0558845
0.000172918
-0.0506843
0.000175105
-0.0459695
0.000169443
-0.041701
0.000157343
-0.0378345
0.000140962
-0.0343305
0.000122479
-0.0311545
0.00010368
-0.0282749
8.58469e-05
-0.0256625
6.96355e-05
-0.0232924
5.53323e-05
-0.0211403
4.28873e-05
-0.0191878
3.20559e-05
-0.0174149
2.2476e-05
-0.015806
1.37007e-05
-0.0143454
5.42061e-06
-0.0130194
-2.57546e-06
-0.011816
-1.0286e-05
-0.0107241
-1.76591e-05
-0.00973284
-2.46646e-05
-0.00883277
-3.14602e-05
-0.00801673
-3.83724e-05
-0.00727506
-4.55781e-05
-0.00659837
-4.82156e-05
-0.00596503
-4.48466e-05
-0.00538234
-4.22395e-05
-0.00485471
-3.78942e-05
-0.00438001
-4.30351e-05
-0.00395176
-3.00692e-05
-0.473346
2.62818e-07
-0.429591
-1.556e-07
-0.38988
-4.62106e-07
-0.353843
-4.30397e-07
-0.321132
-3.66373e-07
-0.291448
-2.75646e-07
-0.264511
-9.98971e-08
-0.240069
2.71969e-07
-0.217881
9.62469e-07
-0.19775
2.13612e-06
-0.179481
4.01735e-06
-0.1629
6.91949e-06
-0.147854
1.12737e-05
-0.134198
1.75859e-05
-0.121799
2.64454e-05
-0.110543
3.84003e-05
-0.100321
5.38457e-05
-0.0910351
7.28435e-05
-0.082599
9.48062e-05
-0.0749267
0.000118347
-0.0679647
0.000141282
-0.0616351
0.000160825
-0.0558962