/*--------------------------------*- C++ -*----------------------------------*\
  =========                 |
  \\      /  F ield         | OpenFOAM: The Open Source CFD Toolbox
   \\    /   O peration     | Website:  https://openfoam.org
    \\  /    A nd           | Version:  dev
     \\/     M anipulation  |
\*---------------------------------------------------------------------------*/
FoamFile
{
    version     2.0;
    format      ascii;
    class       volVectorField;
    location    "500";
    object      U;
}
// * * * * * * * * * * * * * * * * * * * * * * * * * * * * * * * * * * * * * //

dimensions      [0 1 -1 0 0 0 0];

internalField   nonuniform List<vector> 
29380
(
(51.0583 0.00326965 0)
(51.0594 0.00359357 0)
(51.0613 0.00216148 0)
(51.0598 0.00381962 0)
(51.0613 0.00214768 0)
(51.0635 0.00274344 0)
(51.06 0.00397427 0)
(51.0611 0.00161464 0)
(51.0616 0.0025453 0)
(51.0678 0.000213143 0)
(51.0598 0.0041102 0)
(51.061 0.000993529 0)
(51.0602 0.00254036 0)
(51.0671 -0.000270142 0)
(51.0712 0.00137809 0)
(51.0595 0.00422886 0)
(51.0611 0.00043077 0)
(51.0596 0.00277054 0)
(51.0676 0.000470386 0)
(51.0716 0.00197332 0)
(51.075 0.00061619 0)
(51.0591 0.00433152 0)
(51.0612 0.000166819 0)
(51.0599 0.00312838 0)
(51.0682 0.00172062 0)
(51.0726 0.00279607 0)
(51.0751 0.00134993 0)
(51.0767 0.000875859 0)
(51.0588 0.00439776 0)
(51.0615 0.000338273 0)
(51.061 0.00354262 0)
(51.0689 0.00318479 0)
(51.0733 0.00356865 0)
(51.0748 0.00228814 0)
(51.0764 0.00148591 0)
(51.0782 0.000274655 0)
(51.0587 0.00439417 0)
(51.0618 0.000914297 0)
(51.0624 0.00391457 0)
(51.0695 0.00449763 0)
(51.0738 0.00415662 0)
(51.0744 0.00317036 0)
(51.0759 0.00203767 0)
(51.0774 0.00084874 0)
(51.0792 -0.000174014 0)
(51.0589 0.00428742 0)
(51.0621 0.00169075 0)
(51.0637 0.00416493 0)
(51.07 0.00533432 0)
(51.0738 0.00448092 0)
(51.0739 0.00389976 0)
(51.0753 0.00265654 0)
(51.0766 0.0014452 0)
(51.078 0.000338615 0)
(51.0801 -0.000809528 0)
(51.0591 0.00405641 0)
(51.0624 0.00236293 0)
(51.0648 0.00425295 0)
(51.0702 0.00556264 0)
(51.0736 0.00455521 0)
(51.0735 0.00442318 0)
(51.0748 0.00328212 0)
(51.0758 0.00220255 0)
(51.0771 0.000866023 0)
(51.0785 -0.000331658 0)
(51.0807 -0.00150043 0)
(51.0593 0.00369821 0)
(51.0626 0.00263503 0)
(51.0654 0.00418156 0)
(51.0704 0.00526916 0)
(51.0733 0.00448507 0)
(51.0734 0.0047798 0)
(51.0744 0.00391175 0)
(51.0752 0.00304374 0)
(51.0761 0.00163376 0)
(51.0774 0.000235239 0)
(51.0789 -0.0010431 0)
(51.0812 -0.00215835 0)
(51.0595 0.00323499 0)
(51.0628 0.0023358 0)
(51.0656 0.00398978 0)
(51.0705 0.00470824 0)
(51.0731 0.00441023 0)
(51.0735 0.00507134 0)
(51.0744 0.00456419 0)
(51.0748 0.00395367 0)
(51.0755 0.0025603 0)
(51.0763 0.00110029 0)
(51.0777 -0.000461827 0)
(51.0792 -0.00172071 0)
(51.0815 -0.00287664 0)
(51.0594 0.00271834 0)
(51.0631 0.00148974 0)
(51.0658 0.00373769 0)
(51.0707 0.00419578 0)
(51.0732 0.00445841 0)
(51.074 0.0054023 0)
(51.0746 0.00526434 0)
(51.0748 0.00492323 0)
(51.075 0.00363442 0)
(51.0755 0.00217061 0)
(51.0764 0.000457001 0)
(51.0778 -0.00112362 0)
(51.0793 -0.00244742 0)
(51.0817 -0.00352737 0)
(51.0591 0.00223471 0)
(51.0633 0.000332357 0)
(51.066 0.00348822 0)
(51.071 0.00398486 0)
(51.0737 0.00470327 0)
(51.0747 0.00583852 0)
(51.0751 0.00602192 0)
(51.075 0.00594647 0)
(51.0748 0.0048325 0)
(51.0749 0.00342885 0)
(51.0754 0.00161662 0)
(51.0764 -0.000164882 0)
(51.0778 -0.00184304 0)
(51.0793 -0.00310845 0)
(51.0818 -0.00420707 0)
(51.0588 0.00190061 0)
(51.0636 -0.000743559 0)
(51.0665 0.00329185 0)
(51.0715 0.00417864 0)
(51.0744 0.00514803 0)
(51.0756 0.00638486 0)
(51.0759 0.00682384 0)
(51.0755 0.00700581 0)
(51.0749 0.0061258 0)
(51.0746 0.00484227 0)
(51.0746 0.00300032 0)
(51.0752 0.00106157 0)
(51.0762 -0.000868756 0)
(51.0777 -0.00250247 0)
(51.0793 -0.00380493 0)
(51.0818 -0.00482409 0)
(51.0584 0.00184275 0)
(51.0639 -0.00128938 0)
(51.0673 0.00317589 0)
(51.0721 0.00469801 0)
(51.0752 0.00572518 0)
(51.0765 0.00698801 0)
(51.0768 0.00763387 0)
(51.0762 0.00807388 0)
(51.0753 0.00747847 0)
(51.0745 0.00637907 0)
(51.074 0.0045751 0)
(51.0741 0.00254307 0)
(51.0748 0.000391553 0)
(51.076 -0.00152829 0)
(51.0775 -0.00319958 0)
(51.0792 -0.00444796 0)
(51.0818 -0.00543494 0)
(51.0582 0.00215701 0)
(51.0642 -0.00093495 0)
(51.0683 0.00313917 0)
(51.0728 0.00531599 0)
(51.076 0.00631486 0)
(51.0774 0.00755686 0)
(51.0777 0.00839914 0)
(51.0771 0.00911364 0)
(51.0759 0.00885017 0)
(51.0747 0.00800377 0)
(51.0738 0.00631228 0)
(51.0733 0.0042512 0)
(51.0736 0.00193226 0)
(51.0744 -0.000257089 0)
(51.0756 -0.00223385 0)
(51.0773 -0.00384709 0)
(51.079 -0.00509133 0)
(51.0817 -0.00598733 0)
(51.0583 0.00285678 0)
(51.0645 0.000484593 0)
(51.0693 0.00315295 0)
(51.0734 0.00573429 0)
(51.0766 0.00676733 0)
(51.0783 0.00799003 0)
(51.0787 0.00906055 0)
(51.0781 0.0100853 0)
(51.0768 0.0102024 0)
(51.0752 0.00968097 0)
(51.0738 0.00818247 0)
(51.0728 0.00616347 0)
(51.0726 0.0037338 0)
(51.073 0.00131208 0)
(51.0739 -0.00096393 0)
(51.0753 -0.00289929 0)
(51.0771 -0.00449285 0)
(51.0788 -0.00568234 0)
(51.0816 -0.00651456 0)
(51.0586 0.00382871 0)
(51.0646 0.00283655 0)
(51.0701 0.00316659 0)
(51.0741 0.00568349 0)
(51.0771 0.0069333 0)
(51.0791 0.00820061 0)
(51.0797 0.00956284 0)
(51.0793 0.0109493 0)
(51.0778 0.0114977 0)
(51.076 0.0113743 0)
(51.0741 0.0101566 0)
(51.0726 0.00825809 0)
(51.0717 0.00578257 0)
(51.0717 0.00316979 0)
(51.0723 0.000613863 0)
(51.0734 -0.00164267 0)
(51.0749 -0.00356957 0)
(51.0768 -0.00508423 0)
(51.0786 -0.00625519 0)
(51.0815 -0.00699247 0)
(51.0592 0.00482393 0)
(51.0647 0.00567488 0)
(51.0705 0.00311844 0)
(51.0746 0.00501005 0)
(51.0775 0.00669451 0)
(51.0797 0.00813397 0)
(51.0807 0.00986266 0)
(51.0805 0.0116685 0)
(51.0791 0.0127005 0)
(51.077 0.0130468 0)
(51.0747 0.0122023 0)
(51.0726 0.0105127 0)
(51.0712 0.00806479 0)
(51.0706 0.00531202 0)
(51.0708 0.00249864 0)
(51.0716 -7.40329e-05 0)
(51.0729 -0.00233526 0)
(51.0746 -0.00419456 0)
(51.0765 -0.00565041 0)
(51.0783 -0.0067886 0)
(51.0813 -0.00743759 0)
(51.0599 0.00549878 0)
(51.0645 0.00831446 0)
(51.0704 0.00294985 0)
(51.0749 0.00373395 0)
(51.0778 0.00599793 0)
(51.0803 0.00777733 0)
(51.0817 0.0099342 0)
(51.0817 0.0122095 0)
(51.0804 0.0137732 0)
(51.0783 0.0146567 0)
(51.0756 0.0142811 0)
(51.073 0.0129 0)
(51.071 0.0105657 0)
(51.0698 0.00773529 0)
(51.0695 0.0046951 0)
(51.07 0.00181258 0)
(51.071 -0.000790789 0)
(51.0725 -0.00299323 0)
(51.0742 -0.0047994 0)
(51.0762 -0.00616743 0)
(51.0781 -0.0073036 0)
(51.0812 -0.00783402 0)
(51.0607 0.00550945 0)
(51.0643 0.0099958 0)
(51.0698 0.00262099 0)
(51.0751 0.00205436 0)
(51.0781 0.00488336 0)
(51.0809 0.00716351 0)
(51.0827 0.00977285 0)
(51.0831 0.0125435 0)
(51.082 0.0146751 0)
(51.0798 0.0161572 0)
(51.0768 0.0163455 0)
(51.0737 0.0153835 0)
(51.0711 0.0132647 0)
(51.0693 0.0104343 0)
(51.0684 0.00721008 0)
(51.0684 0.00402824 0)
(51.0691 0.0010762 0)
(51.0704 -0.0014881 0)
(51.072 -0.00363686 0)
(51.0738 -0.00535773 0)
(51.0759 -0.00665626 0)
(51.0779 -0.00778615 0)
(51.0811 -0.0081919 0)
(51.0613 0.00462947 0)
(51.0639 0.0101017 0)
(51.0689 0.00212512 0)
(51.0751 0.000306495 0)
(51.0785 0.00349711 0)
(51.0816 0.00636932 0)
(51.0837 0.00939786 0)
(51.0844 0.0126507 0)
(51.0836 0.0153645 0)
(51.0815 0.0174952 0)
(51.0783 0.018338 0)
(51.0748 0.0179146 0)
(51.0716 0.0161311 0)
(51.069 0.0133981 0)
(51.0675 0.0100503 0)
(51.067 0.00658969 0)
(51.0673 0.00328157 0)
(51.0683 0.000340199 0)
(51.0698 -0.00218182 0)
(51.0716 -0.00423586 0)
(51.0735 -0.00589012 0)
(51.0757 -0.00710296 0)
(51.0778 -0.00824906 0)
(51.081 -0.00850307 0)
(51.0617 0.00285468 0)
(51.0636 0.0083627 0)
(51.0678 0.00149731 0)
(51.0751 -0.00112537 0)
(51.079 0.00207712 0)
(51.0822 0.00550781 0)
(51.0848 0.00885336 0)
(51.0858 0.0125264 0)
(51.0853 0.0158049 0)
(51.0834 0.0186168 0)
(51.0802 0.0201936 0)
(51.0763 0.0204313 0)
(51.0724 0.0191203 0)
(51.0691 0.0166054 0)
(51.0669 0.0132179 0)
(51.0658 0.00951574 0)
(51.0656 0.00585052 0)
(51.0663 0.00251081 0)
(51.0676 -0.00040692 0)
(51.0693 -0.00283735 0)
(51.0711 -0.00480832 0)
(51.0732 -0.00638388 0)
(51.0754 -0.00752031 0)
(51.0776 -0.00868413 0)
(51.0809 -0.00877473 0)
(51.0618 0.000446115 0)
(51.0633 0.00498164 0)
(51.0668 0.000813164 0)
(51.0749 -0.00191203 0)
(51.0796 0.000907858 0)
(51.0829 0.00471142 0)
(51.0858 0.00820636 0)
(51.0872 0.0121879 0)
(51.0871 0.0159753 0)
(51.0854 0.0194738 0)
(51.0822 0.0218453 0)
(51.0781 0.0228614 0)
(51.0737 0.0221727 0)
(51.0697 0.0200207 0)
(51.0666 0.0167051 0)
(51.0648 0.0128228 0)
(51.0641 0.00881305 0)
(51.0643 0.00505596 0)
(51.0654 0.00170912 0)
(51.0669 -0.00112669 0)
(51.0687 -0.00346835 0)
(51.0707 -0.00534181 0)
(51.0729 -0.00685089 0)
(51.0752 -0.00789972 0)
(51.0775 -0.00909715 0)
(51.0807 -0.00900486 0)
(51.0616 -0.00211368 0)
(51.0632 0.000621225 0)
(51.0661 0.00017656 0)
(51.0748 -0.00187407 0)
(51.0802 0.000246855 0)
(51.0837 0.00410633 0)
(51.0868 0.00753912 0)
(51.0886 0.011679 0)
(51.0888 0.0158797 0)
(51.0875 0.0200352 0)
(51.0845 0.0232328 0)
(51.0803 0.0251272 0)
(51.0754 0.0252133 0)
(51.0707 0.0235909 0)
(51.0667 0.0204903 0)
(51.0641 0.0165193 0)
(51.0627 0.0121995 0)
(51.0625 0.00801447 0)
(51.0632 0.00420422 0)
(51.0645 0.000918143 0)
(51.0663 -0.00182637 0)
(51.0682 -0.00406137 0)
(51.0704 -0.00584649 0)
(51.0726 -0.00728309 0)
(51.0751 -0.0082468 0)
(51.0773 -0.00948428 0)
(51.0806 -0.00920191 0)
(51.0613 -0.00424545 0)
(51.0632 -0.0037579 0)
(51.0658 -0.000305102 0)
(51.0748 -0.00103519 0)
(51.0808 0.000246844 0)
(51.0845 0.00378012 0)
(51.0877 0.00693513 0)
(51.0899 0.0110679 0)
(51.0906 0.0155542 0)
(51.0896 0.0202953 0)
(51.087 0.0243121 0)
(51.0827 0.0271549 0)
(51.0775 0.028158 0)
(51.0721 0.0272452 0)
(51.0673 0.0245328 0)
(51.0637 0.0206009 0)
(51.0615 0.0160344 0)
(51.0607 0.0114281 0)
(51.061 0.00712435 0)
(51.0621 0.00334023 0)
(51.0637 0.000138346 0)
(51.0657 -0.00249002 0)
(51.0678 -0.00462431 0)
(51.0701 -0.00631442 0)
(51.0724 -0.00768613 0)
(51.0748 -0.00855662 0)
(51.0771 -0.00985249 0)
(51.0804 -0.00936484 0)
(51.0608 -0.00544445 0)
(51.0633 -0.0071633 0)
(51.066 -0.000550318 0)
(51.0749 0.00037993 0)
(51.0813 0.000894933 0)
(51.0852 0.00375337 0)
(51.0885 0.00645967 0)
(51.0911 0.0104358 0)
(51.0923 0.0150637 0)
(51.0918 0.0202799 0)
(51.0895 0.025064 0)
(51.0855 0.0288837 0)
(51.08 0.0309197 0)
(51.074 0.0308969 0)
(51.0684 0.0287714 0)
(51.0638 0.0250444 0)
(51.0607 0.0203319 0)
(51.0591 0.0153357 0)
(51.0588 0.0105205 0)
(51.0596 0.00619154 0)
(51.0611 0.00247246 0)
(51.063 -0.000610078 0)
(51.0651 -0.00312273 0)
(51.0674 -0.00514893 0)
(51.0698 -0.00675194 0)
(51.0722 -0.00805425 0)
(51.0746 -0.00883654 0)
(51.077 -0.0101999 0)
(51.0803 -0.0095005 0)
(51.0604 -0.0054371 0)
(51.0636 -0.00886328 0)
(51.0665 -0.000531224 0)
(51.0752 0.00200875 0)
(51.0817 0.00199813 0)
(51.0857 0.00396367 0)
(51.0893 0.00614109 0)
(51.0922 0.00985849 0)
(51.0939 0.0144914 0)
(51.094 0.0200432 0)
(51.0922 0.0254982 0)
(51.0884 0.0302745 0)
(51.0829 0.0334189 0)
(51.0765 0.0344507 0)
(51.07 0.0331245 0)
(51.0644 0.0298046 0)
(51.0602 0.0250896 0)
(51.0578 0.019769 0)
(51.0568 0.0144428 0)
(51.0571 0.00953075 0)
(51.0584 0.00523257 0)
(51.0602 0.00162737 0)
(51.0623 -0.00132899 0)
(51.0646 -0.00371557 0)
(51.0671 -0.00564218 0)
(51.0696 -0.00715268 0)
(51.072 -0.00839352 0)
(51.0744 -0.00908567 0)
(51.0768 -0.0105321 0)
(51.0802 -0.00960738 0)
(51.06 -0.00426688 0)
(51.0639 -0.00859986 0)
(51.0672 -0.00028922 0)
(51.0754 0.00344985 0)
(51.082 0.0032248 0)
(51.0862 0.00427378 0)
(51.0899 0.00595851 0)
(51.0932 0.00938546 0)
(51.0954 0.013918 0)
(51.0961 0.0196574 0)
(51.0948 0.0256525 0)
(51.0915 0.031315 0)
(51.0861 0.0355933 0)
(51.0794 0.0378116 0)
(51.0722 0.0374947 0)
(51.0655 0.0348126 0)
(51.0602 0.0302836 0)
(51.0567 0.0247469 0)
(51.055 0.0189384 0)
(51.0547 0.0134174 0)
(51.0556 0.00848345 0)
(51.0573 0.00428181 0)
(51.0594 0.000806798 0)
(51.0618 -0.00200778 0)
(51.0642 -0.00427535 0)
(51.0668 -0.00609726 0)
(51.0693 -0.00752205 0)
(51.0718 -0.0087026 0)
(51.0742 -0.00931128 0)
(51.0767 -0.0108459 0)
(51.0801 -0.00969176 0)
(51.0598 -0.0022827 0)
(51.0641 -0.00665167 0)
(51.0679 6.96651e-05 0)
(51.0757 0.00437223 0)
(51.0821 0.00419457 0)
(51.0864 0.00450471 0)
(51.0904 0.00584371 0)
(51.0941 0.00902362 0)
(51.0968 0.0134012 0)
(51.0981 0.0191957 0)
(51.0975 0.0255832 0)
(51.0947 0.0320204 0)
(51.0896 0.0374042 0)
(51.0828 0.0408949 0)
(51.0749 0.0417771 0)
(51.0673 0.0399779 0)
(51.0608 0.0358653 0)
(51.0561 0.0302702 0)
(51.0533 0.0240456 0)
(51.0524 0.0179103 0)
(51.0528 0.0122916 0)
(51.0542 0.00742223 0)
(51.0563 0.00334592 0)
(51.0587 2.45349e-05 0)
(51.0613 -0.00265196 0)
(51.0639 -0.00479526 0)
(51.0665 -0.00651862 0)
(51.0691 -0.00785803 0)
(51.0716 -0.00898818 0)
(51.074 -0.00951217 0)
(51.0766 -0.0111453 0)
(51.0799 -0.00975188 0)
(51.0598 -2.70829e-05 0)
(51.0643 -0.00372722 0)
(51.0685 0.000400518 0)
(51.076 0.00459607 0)
(51.0821 0.00459024 0)
(51.0866 0.0044869 0)
(51.0908 0.00569884 0)
(51.0949 0.00873319 0)
(51.0981 0.0129575 0)
(51.1 0.0187131 0)
(51.1001 0.025352 0)
(51.0979 0.0324268 0)
(51.0933 0.0388398 0)
(51.0865 0.0436348 0)
(51.0783 0.0458687 0)
(51.0697 0.0451939 0)
(51.0619 0.0417599 0)
(51.056 0.036316 0)
(51.052 0.02979 0)
(51.0502 0.0230647 0)
(51.05 0.0167252 0)
(51.0511 0.0111197 0)
(51.053 0.00636037 0)
(51.0554 0.00244349 0)
(51.058 -0.00072235 0)
(51.0608 -0.00325456 0)
(51.0636 -0.00527869 0)
(51.0663 -0.00690314 0)
(51.0688 -0.00816745 0)
(51.0714 -0.0092492 0)
(51.0738 -0.00969394 0)
(51.0764 -0.0114266 0)
(51.0797 -0.00979377 0)
(51.0598 0.00192245 0)
(51.0644 -0.000723455 0)
(51.0689 0.000561357 0)
(51.0762 0.00412533 0)
(51.0821 0.00425346 0)
(51.0867 0.00411425 0)
(51.0912 0.00542618 0)
(51.0956 0.0084394 0)
(51.0992 0.0125586 0)
(51.1018 0.0182318 0)
(51.1026 0.0250098 0)
(51.1011 0.032581 0)
(51.0971 0.0399113 0)
(51.0906 0.0459889 0)
(51.0821 0.0496773 0)
(51.0728 0.0503463 0)
(51.0638 0.0478698 0)
(51.0564 0.0428344 0)
(51.0512 0.0361774 0)
(51.0482 0.028928 0)
(51.0473 0.0218523 0)
(51.0479 0.0154485 0)
(51.0495 0.00992393 0)
(51.0519 0.00532295 0)
(51.0546 0.00157568 0)
(51.0575 -0.00142611 0)
(51.0605 -0.00381792 0)
(51.0633 -0.00572158 0)
(51.066 -0.00725724 0)
(51.0686 -0.00844965 0)
(51.0712 -0.00949068 0)
(51.0736 -0.00985469 0)
(51.0763 -0.0116927 0)
(51.0795 -0.00981696 0)
(51.0599 0.00311541 0)
(51.0644 0.00155285 0)
(51.0691 0.00045922 0)
(51.0762 0.00312598 0)
(51.082 0.00322999 0)
(51.0867 0.00338069 0)
(51.0914 0.00496094 0)
(51.0962 0.00805684 0)
(51.1003 0.0121408 0)
(51.1034 0.0177366 0)
(51.1049 0.0245841 0)
(51.1043 0.032527 0)
(51.101 0.040646 0)
(51.095 0.0479381 0)
(51.0865 0.0531288 0)
(51.0766 0.0553216 0)
(51.0665 0.0540798 0)
(51.0576 0.0497473 0)
(51.0508 0.0431881 0)
(51.0466 0.0355341 0)
(51.0446 0.0277395 0)
(51.0446 0.0204858 0)
(51.0459 0.0141141 0)
(51.0482 0.00873773 0)
(51.0509 0.00431689 0)
(51.0539 0.000752019 0)
(51.0571 -0.00208808 0)
(51.0601 -0.00433704 0)
(51.063 -0.00612948 0)
(51.0657 -0.00758045 0)
(51.0683 -0.00871022 0)
(51.071 -0.00971091 0)
(51.0734 -0.00999852 0)
(51.0761 -0.011941 0)
(51.0793 -0.00982829 0)
(51.06 0.00332578 0)
(51.0643 0.00260909 0)
(51.0691 8.69401e-05 0)
(51.0763 0.00186272 0)
(51.0819 0.0017513 0)
(51.0867 0.00238517 0)
(51.0917 0.00429478 0)
(51.0967 0.00751969 0)
(51.1012 0.0116286 0)
(51.1049 0.0171839 0)
(51.1071 0.0240742 0)
(51.1073 0.0322948 0)
(51.1049 0.0410756 0)
(51.0995 0.0494821 0)
(51.0913 0.0561693 0)
(51.081 0.0600159 0)
(51.0699 0.0602647 0)
(51.0596 0.0569512 0)
(51.0512 0.0507733 0)
(51.0454 0.0428956 0)
(51.0422 0.0344463 0)
(51.0414 0.0263132 0)
(51.0422 0.0190136 0)
(51.0442 0.0127661 0)
(51.0469 0.00757562 0)
(51.05 0.00335482 0)
(51.0534 -2.76334e-05 0)
(51.0566 -0.00270234 0)
(51.0598 -0.00481621 0)
(51.0627 -0.00650212 0)
(51.0655 -0.00787869 0)
(51.0681 -0.00894785 0)
(51.0709 -0.00991335 0)
(51.0732 -0.0101239 0)
(51.0759 -0.0121749 0)
(51.0791 -0.00982728 0)
(51.06 0.00257715 0)
(51.0642 0.00235925 0)
(51.069 -0.000468739 0)
(51.0762 0.00062621 0)
(51.0818 0.000155416 0)
(51.0867 0.00130292 0)
(51.0919 0.00348035 0)
(51.0972 0.00680609 0)
(51.102 0.0109627 0)
(51.1062 0.0165196 0)
(51.1091 0.0234569 0)
(51.1102 0.0318956 0)
(51.1086 0.0412268 0)
(51.1041 0.0506313 0)
(51.0963 0.0587649 0)
(51.086 0.06434 0)
(51.0741 0.0662976 0)
(51.0624 0.0643218 0)
(51.0523 0.0588533 0)
(51.0448 0.0509983 0)
(51.0401 0.042017 0)
(51.0382 0.0330121 0)
(51.0384 0.0247142 0)
(51.0401 0.0174924 0)
(51.0427 0.0114285 0)
(51.0459 0.0064551 0)
(51.0493 0.00243849 0)
(51.0529 -0.000756363 0)
(51.0563 -0.00327166 0)
(51.0594 -0.00525493 0)
(51.0624 -0.00684556 0)
(51.0652 -0.00815106 0)
(51.068 -0.00916641 0)
(51.0707 -0.0100964 0)
(51.073 -0.0102349 0)
(51.0756 -0.0123929 0)
(51.079 -0.00982042 0)
(51.06 0.00109183 0)
(51.0641 0.00107468 0)
(51.0689 -0.00104496 0)
(51.0761 -0.000332905 0)
(51.0818 -0.00121804 0)
(51.0867 0.00032878 0)
(51.0922 0.00261572 0)
(51.0976 0.00594761 0)
(51.1028 0.0101241 0)
(51.1074 0.0157036 0)
(51.111 0.0227007 0)
(51.1128 0.0313237 0)
(51.1123 0.0411155 0)
(51.1087 0.0513994 0)
(51.1016 0.0608966 0)
(51.0915 0.0682219 0)
(51.0791 0.0720574 0)
(51.0661 0.0717211 0)
(51.0543 0.0673196 0)
(51.0449 0.0597964 0)
(51.0385 0.0504742 0)
(51.0353 0.0406567 0)
(51.0346 0.0313146 0)
(51.0358 0.0230145 0)
(51.0382 0.0159585 0)
(51.0414 0.0101261 0)
(51.0449 0.00538102 0)
(51.0487 0.00157604 0)
(51.0524 -0.00143531 0)
(51.0559 -0.00379482 0)
(51.0591 -0.00565929 0)
(51.0621 -0.00715953 0)
(51.065 -0.00840189 0)
(51.0678 -0.00936427 0)
(51.0705 -0.0102629 0)
(51.0727 -0.0103312 0)
(51.0755 -0.012599 0)
(51.079 -0.0098053 0)
(51.06 -0.000799333 0)
(51.064 -0.000770103 0)
(51.0688 -0.00144955 0)
(51.0761 -0.00083958 0)
(51.0817 -0.00212478 0)
(51.0868 -0.000382349 0)
(51.0924 0.00181161 0)
(51.098 0.00502058 0)
(51.1034 0.00914355 0)
(51.1085 0.0147287 0)
(51.1126 0.0217839 0)
(51.1154 0.0305669 0)
(51.1158 0.0407478 0)
(51.1132 0.0517984 0)
(51.1071 0.0625556 0)
(51.0973 0.0716071 0)
(51.0848 0.0774343 0)
(51.0708 0.0790049 0)
(51.0573 0.0760382 0)
(51.0458 0.0692099 0)
(51.0375 0.0598115 0)
(51.0326 0.0493056 0)
(51.0308 0.0389139 0)
(51.0313 0.0294431 0)
(51.0334 0.0212649 0)
(51.0365 0.0144464 0)
(51.0402 0.0088688 0)
(51.0442 0.0043635 0)
(51.0481 0.000768103 0)
(51.0519 -0.00206199 0)
(51.0555 -0.00427762 0)
(51.0588 -0.00602945 0)
(51.0619 -0.00744867 0)
(51.0648 -0.00862963 0)
(51.0676 -0.00954425 0)
(51.0703 -0.0104127 0)
(51.0725 -0.0104173 0)
(51.0755 -0.012791 0)
(51.0793 -0.00978821 0)
(51.0599 -0.00274199 0)
(51.0639 -0.00268126 0)
(51.0688 -0.0015257 0)
(51.076 -0.000801038 0)
(51.0817 -0.00246952 0)
(51.087 -0.000759342 0)
(51.0926 0.00115648 0)
(51.0984 0.00412122 0)
(51.104 0.00809493 0)
(51.1094 0.0136289 0)
(51.1142 0.0207102 0)
(51.1177 0.0296197 0)
(51.1191 0.0401256 0)
(51.1176 0.0518382 0)
(51.1125 0.0637401 0)
(51.1035 0.0744552 0)
(51.091 0.0823333 0)
(51.0763 0.0860307 0)
(51.0613 0.0848558 0)
(51.0478 0.0791253 0)
(51.0373 0.0699871 0)
(51.0304 0.0589942 0)
(51.0271 0.0476041 0)
(51.0267 0.0368971 0)
(51.0284 0.0274661 0)
(51.0314 0.0195134 0)
(51.0351 0.0129739 0)
(51.0392 0.00767002 0)
(51.0435 0.0034051 0)
(51.0476 1.88967e-05 0)
(51.0515 -0.00264155 0)
(51.0552 -0.00472048 0)
(51.0586 -0.00637043 0)
(51.0617 -0.00771193 0)
(51.0647 -0.00883721 0)
(51.0674 -0.00970597 0)
(51.0701 -0.0105495 0)
(51.0725 -0.0104926 0)
(51.0758 -0.0129735 0)
(51.0797 -0.00976295 0)
(51.0597 -0.00442611 0)
(51.0639 -0.00427267 0)
(51.0688 -0.00120518 0)
(51.076 -0.000210692 0)
(51.0817 -0.00230571 0)
(51.0871 -0.000826739 0)
(51.0928 0.000691568 0)
(51.0987 0.00333533 0)
(51.1045 0.00707216 0)
(51.1103 0.0124728 0)
(51.1156 0.0195147 0)
(51.1198 0.0284951 0)
(51.1222 0.0392569 0)
(51.1218 0.0515304 0)
(51.1179 0.0644543 0)
(51.1098 0.0767402 0)
(51.0978 0.0866752 0)
(51.0827 0.0926634 0)
(51.0664 0.093608 0)
(51.0509 0.0893982 0)
(51.038 0.0809215 0)
(51.0289 0.0697246 0)
(51.0238 0.0574605 0)
(51.0221 0.0454966 0)
(51.0231 0.0346952 0)
(51.0258 0.0254481 0)
(51.0295 0.0177888 0)
(51.0338 0.01156 0)
(51.0383 0.00653471 0)
(51.0428 0.00251218 0)
(51.0471 -0.000675669 0)
(51.0511 -0.00317441 0)
(51.0549 -0.00512875 0)
(51.0583 -0.00668162 0)
(51.0615 -0.00795233 0)
(51.0645 -0.00902398 0)
(51.0672 -0.00985312 0)
(51.0701 -0.0106732 0)
(51.0727 -0.0105622 0)
(51.0762 -0.013142 0)
(51.0804 -0.00975059 0)
(51.0596 -0.00559467 0)
(51.064 -0.0053214 0)
(51.0689 -0.000535415 0)
(51.076 0.000855688 0)
(51.0818 -0.00178827 0)
(51.0872 -0.000682415 0)
(51.093 0.000404183 0)
(51.0989 0.00271382 0)
(51.105 0.00616097 0)
(51.1111 0.0113447 0)
(51.1169 0.0182595 0)
(51.1218 0.0272298 0)
(51.1251 0.0381642 0)
(51.1259 0.0508944 0)
(51.1232 0.0647104 0)
(51.1162 0.078449 0)
(51.1049 0.0903989 0)
(51.0898 0.0987804 0)
(51.0725 0.102126 0)
(51.0551 0.0998585 0)
(51.0399 0.0924949 0)
(51.0283 0.0814607 0)
(51.021 0.0685313 0)
(51.0176 0.0553534 0)
(51.0176 0.0430946 0)
(51.0199 0.0323929 0)
(51.0235 0.0234332 0)
(51.028 0.0161184 0)
(51.0328 0.0102131 0)
(51.0376 0.00547191 0)
(51.0422 0.00168214 0)
(51.0466 -0.00131569 0)
(51.0508 -0.00366623 0)
(51.0546 -0.0055023 0)
(51.0581 -0.00696652 0)
(51.0613 -0.00816921 0)
(51.0643 -0.0091936 0)
(51.0672 -0.00998591 0)
(51.0703 -0.0107881 0)
(51.0731 -0.0106215 0)
(51.077 -0.0133016 0)
(51.0743 -0.00975824 0)
(51.0596 -0.00609541 0)
(51.0641 -0.00574303 0)
(51.0691 0.000318608 0)
(51.076 0.00224185 0)
(51.0817 -0.00110892 0)
(51.0873 -0.000452711 0)
(51.0931 0.000242077 0)
(51.0992 0.00226218 0)
(51.1054 0.00541432 0)
(51.1118 0.0103197 0)
(51.118 0.017018 0)
(51.1236 0.0258813 0)
(51.1277 0.0368887 0)
(51.1297 0.0499629 0)
(51.1283 0.0645324 0)
(51.1226 0.0795831 0)
(51.1123 0.0934619 0)
(51.0975 0.104277 0)
(51.0795 0.110245 0)
(51.0606 0.110318 0)
(51.043 0.104551 0)
(51.0287 0.0941216 0)
(51.0188 0.0808291 0)
(51.0135 0.0665591 0)
(51.0121 0.0528068 0)
(51.0136 0.0405066 0)
(51.017 0.0300534 0)
(51.0216 0.0214604 0)
(51.0266 0.0145162 0)
(51.0318 0.00894535 0)
(51.0369 0.00448092 0)
(51.0417 0.00091566 0)
(51.0462 -0.00190709 0)
(51.0505 -0.00411734 0)
(51.0544 -0.00584519 0)
(51.058 -0.0072244 0)
(51.0612 -0.00836607 0)
(51.0643 -0.00934652 0)
(51.0673 -0.0101088 0)
(51.0707 -0.0108908 0)
(51.0737 -0.0106773 0)
(51.0791 -0.0134409 0)
(51.0181 -0.00951058 0)
(51.0595 -0.00581786 0)
(51.0642 -0.00554303 0)
(51.0693 0.00111879 0)
(51.076 0.00369357 0)
(51.0817 -0.000439239 0)
(51.0873 -0.000248728 0)
(51.0932 0.000140074 0)
(51.0994 0.00194713 0)
(51.1058 0.00484117 0)
(51.1125 0.00944338 0)
(51.1191 0.0158553 0)
(51.1252 0.0245157 0)
(51.1302 0.0354875 0)
(51.1332 0.0487836 0)
(51.1331 0.0639589 0)
(51.1289 0.0801613 0)
(51.1198 0.0958428 0)
(51.1056 0.109071 0)
(51.0875 0.117813 0)
(51.0672 0.120579 0)
(51.0474 0.116902 0)
(51.0303 0.107582 0)
(51.0176 0.094322 0)
(51.0098 0.0791763 0)
(51.0066 0.0639624 0)
(51.0071 0.0499562 0)
(51.01 0.0378191 0)
(51.0145 0.0277322 0)
(51.0199 0.0195522 0)
(51.0254 0.0129985 0)
(51.031 0.00775883 0)
(51.0362 0.00356385 0)
(51.0412 0.000206717 0)
(51.0459 -0.00245051 0)
(51.0502 -0.00453229 0)
(51.0542 -0.00615676 0)
(51.0578 -0.00745873 0)
(51.0611 -0.0085436 0)
(51.0644 -0.0094874 0)
(51.0677 -0.0102191 0)
(51.0713 -0.0109888 0)
(51.0744 -0.0107325 0)
(51.0662 -0.013378 0)
(50.8824 -0.00872279 0)
(51.0594 -0.00478527 0)
(51.0644 -0.00477883 0)
(51.0694 0.00164279 0)
(51.076 0.00488464 0)
(51.0816 0.000100632 0)
(51.0874 -0.000136583 0)
(51.0933 4.37606e-05 0)
(51.0996 0.00171595 0)
(51.1061 0.00441024 0)
(51.113 0.00872226 0)
(51.12 0.014812 0)
(51.1267 0.0231929 0)
(51.1325 0.0340247 0)
(51.1365 0.0474165 0)
(51.1378 0.0630435 0)
(51.135 0.0802207 0)
(51.1273 0.0975432 0)
(51.1141 0.113103 0)
(51.0962 0.124698 0)
(51.075 0.130443 0)
(51.0532 0.12933 0)
(51.0333 0.121671 0)
(51.0175 0.10893 0)
(51.0069 0.0932273 0)
(51.0014 0.076671 0)
(51.0004 0.0609046 0)
(51.0026 0.0469151 0)
(51.0069 0.0351087 0)
(51.0124 0.0254638 0)
(51.0184 0.0177311 0)
(51.0244 0.0115712 0)
(51.0302 0.00665779 0)
(51.0356 0.00271482 0)
(51.0407 -0.00044562 0)
(51.0456 -0.00295113 0)
(51.05 -0.00491073 0)
(51.0541 -0.00644042 0)
(51.0578 -0.00767016 0)
(51.0612 -0.00870649 0)
(51.0647 -0.00961401 0)
(51.0683 -0.0103237 0)
(51.0724 -0.0110731 0)
(51.0698 -0.0108081 0)
(50.9726 -0.0125298 0)
(50.6988 -0.00776383 0)
(51.0594 -0.00314522 0)
(51.0645 -0.00357673 0)
(51.0696 0.00169605 0)
(51.0759 0.00551004 0)
(51.0815 0.00042808 0)
(51.0874 -0.000133095 0)
(51.0933 -7.35439e-05 0)
(51.0997 0.00151661 0)
(51.1064 0.00406776 0)
(51.1135 0.0081275 0)
(51.1208 0.0138964 0)
(51.128 0.0219538 0)
(51.1345 0.0325593 0)
(51.1396 0.0459266 0)
(51.1421 0.0618512 0)
(51.1409 0.0798158 0)
(51.1347 0.0985882 0)
(51.1229 0.116345 0)
(51.1055 0.130792 0)
(51.0839 0.139727 0)
(51.0604 0.141608 0)
(51.0378 0.136178 0)
(51.0187 0.124521 0)
(51.0049 0.108688 0)
(50.9967 0.0910097 0)
(50.9938 0.073503 0)
(50.9948 0.0575296 0)
(50.9987 0.043786 0)
(51.0042 0.0324269 0)
(51.0106 0.0232799 0)
(51.0171 0.016008 0)
(51.0235 0.0102417 0)
(51.0295 0.00563712 0)
(51.0351 0.00193287 0)
(51.0404 -0.00104706 0)
(51.0454 -0.00340894 0)
(51.0499 -0.005256 0)
(51.054 -0.00669678 0)
(51.0579 -0.0078636 0)
(51.0616 -0.00885333 0)
(51.0653 -0.00973371 0)
(51.0692 -0.0104139 0)
(51.0731 -0.0111656 0)
(51.0102 -0.0104814 0)
(50.8066 -0.0111222 0)
(50.4897 -0.00684003 0)
(51.0593 -0.00108327 0)
(51.0645 -0.00209725 0)
(51.0698 0.0012423 0)
(51.0759 0.00529225 0)
(51.0814 0.000505154 0)
(51.0873 -0.000231342 0)
(51.0934 -0.000212715 0)
(51.0998 0.00131428 0)
(51.1067 0.00375774 0)
(51.114 0.00761092 0)
(51.1216 0.0130886 0)
(51.1292 0.0208139 0)
(51.1364 0.0311353 0)
(51.1424 0.0443744 0)
(51.1462 0.0604515 0)
(51.1465 0.0790142 0)
(51.1419 0.099025 0)
(51.1316 0.118797 0)
(51.1152 0.136024 0)
(51.0936 0.148267 0)
(51.0689 0.153505 0)
(51.0438 0.150861 0)
(51.0215 0.140909 0)
(51.0041 0.125479 0)
(50.9928 0.107014 0)
(50.9874 0.0878786 0)
(50.9869 0.0698479 0)
(50.9899 0.0539706 0)
(50.9953 0.0406434 0)
(51.0019 0.0298185 0)
(51.009 0.0211986 0)
(51.016 0.0143947 0)
(51.0227 0.00900657 0)
(51.0289 0.00469606 0)
(51.0347 0.00121166 0)
(51.0401 -0.00159814 0)
(51.0452 -0.00382744 0)
(51.0498 -0.00556877 0)
(51.0541 -0.00693082 0)
(51.0582 -0.0080382 0)
(51.0621 -0.00899133 0)
(51.0662 -0.00983736 0)
(51.0704 -0.0105147 0)
(51.0452 -0.0110289 0)
(50.862 -0.00940056 0)
(50.6027 -0.00970972 0)
(50.2696 -0.00599519 0)
(51.0594 0.00092108 0)
(51.0645 -0.000540034 0)
(51.0698 0.000368428 0)
(51.0759 0.00419161 0)
(51.0813 0.000295692 0)
(51.0873 -0.000413015 0)
(51.0934 -0.000368414 0)
(51.0999 0.00109562 0)
(51.1069 0.00343914 0)
(51.1144 0.00712342 0)
(51.1222 0.0123528 0)
(51.1303 0.0197655 0)
(51.1381 0.0297762 0)
(51.145 0.0428079 0)
(51.15 0.0589102 0)
(51.1517 0.0778904 0)
(51.1489 0.0989179 0)
(51.1403 0.120486 0)
(51.1253 0.140354 0)
(51.1041 0.155934 0)
(51.0786 0.164801 0)
(51.0515 0.165458 0)
(51.026 0.157862 0)
(51.0049 0.14346 0)
(50.9899 0.124667 0)
(50.9815 0.104126 0)
(50.9788 0.0840412 0)
(50.9807 0.0658738 0)
(50.9856 0.0503309 0)
(50.9923 0.0375505 0)
(50.9999 0.0273118 0)
(51.0076 0.0192377 0)
(51.015 0.012891 0)
(51.0219 0.00786581 0)
(51.0284 0.00382779 0)
(51.0344 0.000550068 0)
(51.04 -0.00210266 0)
(51.0451 -0.00420733 0)
(51.0499 -0.00585387 0)
(51.0544 -0.00714236 0)
(51.0587 -0.00820132 0)
(51.063 -0.00911154 0)
(51.0675 -0.00993921 0)
(51.0619 -0.0105526 0)
(50.9253 -0.0100845 0)
(50.6644 -0.00817441 0)
(50.3808 -0.0084032 0)
(50.0477 -0.00525479 0)
(51.0594 0.00258095 0)
(51.0645 0.000721039 0)
(51.0699 -0.000773194 0)
(51.0758 0.00237272 0)
(51.0812 -0.000217872 0)
(51.0873 -0.000678479 0)
(51.0934 -0.000534317 0)
(51.1 0.000856976 0)
(51.1071 0.00309458 0)
(51.1147 0.00663035 0)
(51.1228 0.0116525 0)
(51.1313 0.0187877 0)
(51.1397 0.0284862 0)
(51.1474 0.0412586 0)
(51.1535 0.0572827 0)
(51.1567 0.0765173 0)
(51.1557 0.0983424 0)
(51.1489 0.121466 0)
(51.1354 0.143777 0)
(51.1152 0.162636 0)
(51.0895 0.175303 0)
(51.0607 0.179704 0)
(51.0322 0.175111 0)
(51.0073 0.162434 0)
(50.9883 0.143891 0)
(50.9763 0.122296 0)
(50.971 0.100258 0)
(50.9712 0.0797024 0)
(50.9753 0.0617188 0)
(50.9819 0.0466983 0)
(50.9898 0.0345493 0)
(50.9982 0.0249328 0)
(51.0064 0.0174017 0)
(51.0141 0.0114984 0)
(51.0213 0.00681251 0)
(51.028 0.00303051 0)
(51.0341 -5.63413e-05 0)
(51.0399 -0.00256152 0)
(51.0452 -0.00455342 0)
(51.0502 -0.00611198 0)
(51.0549 -0.00733886 0)
(51.0596 -0.00834476 0)
(51.0642 -0.00922814 0)
(51.0669 -0.0100388 0)
(50.9792 -0.00995552 0)
(50.7374 -0.00869345 0)
(50.4421 -0.00703479 0)
(50.1538 -0.00725905 0)
(49.8298 -0.0046186 0)
(51.0595 0.00361073 0)
(51.0645 0.00146979 0)
(51.0698 -0.00184622 0)
(51.0758 0.000123554 0)
(51.0811 -0.000999379 0)
(51.0873 -0.00103982 0)
(51.0934 -0.000726187 0)
(51.1001 0.000601739 0)
(51.1072 0.00272258 0)
(51.115 0.00612003 0)
(51.1233 0.010963 0)
(51.1321 0.0178564 0)
(51.141 0.0272578 0)
(51.1495 0.0397426 0)
(51.1567 0.0556098 0)
(51.1613 0.0749601 0)
(51.162 0.097377 0)
(51.1572 0.121805 0)
(51.1456 0.146322 0)
(51.1267 0.168319 0)
(51.1012 0.184852 0)
(51.0713 0.193344 0)
(51.0402 0.19236 0)
(51.0116 0.182147 0)
(50.9883 0.164543 0)
(50.9723 0.142378 0)
(50.9637 0.118612 0)
(50.9616 0.0956516 0)
(50.9644 0.0750411 0)
(50.9705 0.0575027 0)
(50.9787 0.0431344 0)
(50.9876 0.0316777 0)
(50.9967 0.022693 0)
(51.0054 0.0156952 0)
(51.0134 0.0102105 0)
(51.0208 0.00584418 0)
(51.0277 0.00229899 0)
(51.034 -0.000608727 0)
(51.0399 -0.00297944 0)
(51.0454 -0.00486708 0)
(51.0507 -0.00635041 0)
(51.0558 -0.00751329 0)
(51.0608 -0.00848373 0)
(51.0656 -0.00934499 0)
(51.022 -0.00977737 0)
(50.8064 -0.00855448 0)
(50.5157 -0.00737801 0)
(50.2114 -0.00603829 0)
(49.9295 -0.00628621 0)
(49.6195 -0.00407613 0)
(51.0594 0.00381819 0)
(51.0644 0.0015 0)
(51.0697 -0.00270176 0)
(51.0758 -0.00191022 0)
(51.0811 -0.0020143 0)
(51.0873 -0.00149383 0)
(51.0935 -0.000972819 0)
(51.1002 0.000322025 0)
(51.1074 0.00233307 0)
(51.1153 0.00559668 0)
(51.1238 0.0102779 0)
(51.1329 0.0169551 0)