/*--------------------------------*- C++ -*----------------------------------*\
  =========                 |
  \\      /  F ield         | OpenFOAM: The Open Source CFD Toolbox
   \\    /   O peration     | Website:  https://openfoam.org
    \\  /    A nd           | Version:  dev
     \\/     M anipulation  |
\*---------------------------------------------------------------------------*/
FoamFile
{
    version     2.0;
    format      ascii;
    class       volScalarField;
    location    "500";
    object      yPlus;
}
// * * * * * * * * * * * * * * * * * * * * * * * * * * * * * * * * * * * * * //

dimensions      [0 0 0 0 0 0 0];

internalField   uniform 0;

boundaryField
{
    inlet-l
    {
        type            calculated;
        value           uniform 0;
    }
    airfoil-l1
    {
        type            calculated;
        value           nonuniform List<scalar> 
71
(
191.521
214.781
249.872
283.687
310.265
327.672
337.988
343.168
344.703
343.726
340.928
337.066
331.708
325.292
318.215
310.746
303.055
295.247
287.38
279.533
271.769
264.107
256.578
249.211
242.032
235.067
228.337
221.856
215.67
209.808
204.307
199.208
194.557
190.393
186.775
183.737
181.301
179.458
178.166
177.378
176.977
176.883
177.058
177.357
177.77
178.141
178.511
178.761
178.887
178.844
178.649
178.211
177.506
176.603
175.459
174.044
172.442
170.598
168.587
166.377
164.053
161.587
159.026
156.396
153.702
150.994
148.275
145.592
142.927
140.42
137.791
)
;
    }
    empty-1
    {
        type            empty;
    }
    empty-2
    {
        type            empty;
    }
    wall-l1
    {
        type            calculated;
        value           nonuniform List<scalar> 
104
(
29.9324
20.1166
22.3114
24.9648
18.8723
11.9705
6.75088
14.1255
15.6053
15.7315
14.3833
14.079
14.126
14.0376
14.3426
13.7768
13.8951
13.862
13.6137
13.805
13.6233
13.6002
13.6253
13.4764
13.4913
13.4288
13.3377
13.3145
13.2684
13.2671
13.2524
13.1904
13.1479
13.1149
13.0887
13.0801
13.1045
13.1809
13.2738
13.3274
13.3226
13.2766
13.2235
13.1883
13.1785
13.1952
13.2373
13.2985
13.3701
13.4373
13.4813
13.4825
13.4292
13.3351
13.233
13.1581
13.1259
13.1384
13.1879
13.2497
13.2812
13.254
13.1824
13.1102
13.0697
13.0672
13.0879
13.0912
13.033
12.9362
12.9367
13.1205
13.372
13.4633
13.2966
13.0268
12.9657
13.2346
13.594
13.7465
13.5893
13.2432
12.971
12.9515
13.0986
13.1873
13.1091
12.9635
12.9745
13.2152
13.4893
13.5563
13.3596
13.0691
12.9281
12.9973
13.1145
13.1448
13.1
13.0588
13.0764
13.1885
13.4325
13.6937
)
;
    }
    airfoil-l2
    {
        type            calculated;
        value           nonuniform List<scalar> 
104
(
137.438
139.808
141.656
142.99
143.957
144.642
145.105
145.386
145.537
145.583
145.51
145.336
145.095
144.809
144.487
144.135
143.754
143.371
142.966
142.547
142.124
141.697
141.264
140.821
140.374
139.927
139.476
139.023
138.567
138.105
137.638
137.179
136.727
136.264
135.797
135.333
134.871
134.412
133.952
133.488
133.022
132.556
132.089
131.625
131.163
130.699
130.233
129.765
129.3
128.833
128.364
127.894
127.423
126.953
126.481
126.007
125.527
125.048
124.568
124.085
123.595
123.106
122.617
122.116
121.613
121.106
120.592
120.072
119.548
119.025
118.492
117.943
117.391
116.833
116.253
115.677
115.089
114.48
113.861
113.227
112.577
111.901
111.218
110.507
109.769
109.007
108.219
107.393
106.52
105.617
104.667
103.66
102.59
101.448
100.223
98.8981
97.4529
95.8649
94.0992
92.0819
89.7684
86.8798
83.6081
77.314
)
;
    }
    empty-3
    {
        type            empty;
    }
    empty-4
    {
        type            empty;
    }
    wall-l2
    {
        type            calculated;
        value           nonuniform List<scalar> 
51
(
13.8627
13.8082
13.3803
12.9767
12.9234
13.5525
14.3106
14.8894
15.0912
14.8669
14.3714
13.7897
13.4583
13.5483
13.8874
14.107
13.9709
13.5463
13.2691
13.6468
14.5145
15.276
15.57
15.403
15.0983
15.052
15.3247
15.5928
15.5284
15.0227
14.1727
13.2222
12.4761
12.1466
12.2306
12.5732
13.001
13.381
13.6342
13.7388
13.7257
13.6606
13.6208
13.6691
13.8302
14.0673
14.2832
14.3517
14.1677
13.7274
12.6537
)
;
    }
    outlet-l
    {
        type            calculated;
        value           uniform 0;
    }
    empty-5
    {
        type            empty;
    }
    empty-6
    {
        type            empty;
    }
    outlet-h
    {
        type            calculated;
        value           uniform 0;
    }
    wall-h2
    {
        type            calculated;
        value           nonuniform List<scalar> 
51
(
13.0917
13.1059
13.0899
13.0823
13.0523
13.0508
13.0452
13.0389
13.0322
13.021
13.0271
13.0472
13.0812
13.1184
13.1521
13.1738
13.1833
13.1846
13.1794
13.1759
13.1748
13.1801
13.1954
13.2208
13.2577
13.3033
13.3538
13.4083
13.4655
13.5296
13.6049
13.6952
13.8014
13.9188
14.0372
14.1445
14.2289
14.2843
14.3106
14.3133
14.2997
14.2767
14.2489
14.219
14.1873
14.1524
14.1088
14.0489
13.9473
13.8313
13.4683
)
;
    }
    empty-7
    {
        type            empty;
    }
    empty-8
    {
        type            empty;
    }
    airfoil-h2
    {
        type            calculated;
        value           nonuniform List<scalar> 
104
(
136.092
138.427
140.26
141.593
142.568
143.275
143.764
144.081
144.267
144.358
144.35
144.25
144.082
143.859
143.592
143.298
142.975
142.646
142.291
141.931
141.561
141.179
140.79
140.397
139.997
139.582
139.173
138.758
138.334
137.914
137.486
137.052
136.615
136.188
135.755
135.316
134.869
134.421
133.978
133.528
133.083
132.63
132.177
131.723
131.27
130.816
130.357
129.895
129.433
128.965
128.506
128.032
127.562
127.095
126.621
126.145
125.672
125.192
124.704
124.222
123.728
123.242
122.741
122.241
121.737
121.23
120.718
120.197
119.672
119.143
118.598
118.055
117.502
116.94
116.369
115.785
115.196
114.587
113.968
113.332
112.675
112.008
111.322
110.607
109.872
109.115
108.322
107.497
106.632
105.725
104.769
103.757
102.679
101.535
100.305
98.9775
97.5276
95.9273
94.1408
92.1059
89.7784
86.8767
83.5967
77.261
)
;
    }
    wall-h1
    {
        type            calculated;
        value           nonuniform List<scalar> 
104
(
11.0185
1.0188
15.0295
16.4881
14.2216
12.265
11.5343
13.5821
14.119
13.5885
13.0165
13.2015
13.2287
13.3494
13.4213
13.2519
13.5109
13.4375
13.3265
13.3862
13.2313
13.2882
13.2944
13.2262
13.2881
13.248
13.2437
13.2585
13.2163
13.2307
13.2232
13.2055
13.2123
13.1988
13.1989
13.1988
13.1876
13.1878
13.1858
13.1826
13.1777
13.164
13.1526
13.1436
13.1376
13.1346
13.1328
13.1317
13.1308
13.1278
13.1217
13.1135
13.104
13.0949
13.0877
13.083
13.0789
13.0749
13.0707
13.0676
13.0638
13.0599
13.0563
13.0543
13.0535
13.0525
13.0521
13.0529
13.0562
13.0666
13.0881
13.1177
13.143
13.1492
13.1311
13.1002
13.0723
13.0575
13.0529
13.0502
13.0454
13.0433
13.0486
13.0619
13.081
13.0996
13.1114
13.1118
13.0996
13.0804
13.0607
13.0471
13.0403
13.0411
13.0504
13.0716
13.101
13.129
13.1447
13.1437
13.1318
13.1183
13.1065
13.0959
)
;
    }
    empty-9
    {
        type            empty;
    }
    empty-10
    {
        type            empty;
    }
    inlet-h
    {
        type            calculated;
        value           uniform 0;
    }
    airfoil-h1
    {
        type            calculated;
        value           nonuniform List<scalar> 
71
(
189.67
210.105
244.625
279.184
307.533
326.92
338.985
345.555
348.129
347.876
345.569
341.928
336.853
330.52
323.377
315.735
307.789
299.671
291.438
283.2
275.01
266.898
258.912
251.082
243.415
235.964
228.745
221.798
215.14
208.808
202.851
197.319
192.256
187.708
183.745
180.392
177.685
175.635
174.191
173.288
172.839
172.733
172.905
173.259
173.762
174.236
174.689
175.05
175.303
175.421
175.333
175.074
174.554
173.802
172.795
171.522
170.041
168.336
166.411
164.319
162.067
159.686
157.201
154.64
152.02
149.354
146.709
144.07
141.471
139.031
136.455
)
;
    }
    empty-11
    {
        type            empty;
    }
    empty-12
    {
        type            empty;
    }
}


// ************************************************************************* //
