/*--------------------------------*- C++ -*----------------------------------*\
  =========                 |
  \\      /  F ield         | OpenFOAM: The Open Source CFD Toolbox
   \\    /   O peration     | Website:  https://openfoam.org
    \\  /    A nd           | Version:  dev
     \\/     M anipulation  |
\*---------------------------------------------------------------------------*/
FoamFile
{
    version     2.0;
    format      ascii;
    class       surfaceScalarField;
    location    "375";
    object      phi;
}
// * * * * * * * * * * * * * * * * * * * * * * * * * * * * * * * * * * * * * //

dimensions      [0 3 -1 0 0 0 0];

internalField   nonuniform List<scalar> 
58294
(
-0.473389
-1.61539e-05
-0.473389
-1.67228e-05
-0.429592
-9.56307e-06
-0.473387
-1.39372e-05
-0.429599
-9.99216e-06
-0.389877
-1.14993e-05
-0.473384
-9.90146e-06
-0.429602
-1.14348e-05
-0.389878
-8.62206e-06
-0.353812
-1.05433e-05
-0.473382
-6.51661e-06
-0.4296
-1.16882e-05
-0.389881
-8.698e-06
-0.353812
-8.21269e-06
-0.321087
-1.24996e-05
-0.47338
-4.69929e-06
-0.429595
-1.1202e-05
-0.389883
-9.28792e-06
-0.353812
-9.22317e-06
-0.321084
-1.15411e-05
-0.291379
-1.77197e-05
-0.473378
-4.81644e-06
-0.42959
-9.91559e-06
-0.389885
-9.35486e-06
-0.353811
-1.00456e-05
-0.32108
-1.30995e-05
-0.291374
-1.69544e-05
-0.264422
-2.26048e-05
-0.473377
-6.06076e-06
-0.429587
-7.69405e-06
-0.389887
-8.09698e-06
-0.353811
-9.93234e-06
-0.321078
-1.29211e-05
-0.291371
-1.63805e-05
-0.264418
-2.09658e-05
-0.239963
-2.67882e-05
-0.473377
-7.35215e-06
-0.429589
-4.98001e-06
-0.389889
-5.51917e-06
-0.353811
-8.05105e-06
-0.321076
-1.11691e-05
-0.29137
-1.39788e-05
-0.264416
-1.86767e-05
-0.23996
-2.43494e-05
-0.217759
-3.12506e-05
-0.473379
-7.65101e-06
-0.429594
-2.09466e-06
-0.389892
-2.29233e-06
-0.353812
-4.62565e-06
-0.321077
-7.64722e-06
-0.291371
-1.02137e-05
-0.264415
-1.4882e-05
-0.239958
-2.12394e-05
-0.217755
-2.81692e-05
-0.197612
-3.59862e-05
-0.473382
-6.65101e-06
-0.429602
1.58049e-07
-0.389895
4.4417e-07
-0.353814
-5.08972e-07
-0.321079
-2.85065e-06
-0.291373
-5.24509e-06
-0.264416
-1.00435e-05
-0.239956
-1.66977e-05
-0.217752
-2.44732e-05
-0.197608
-3.24037e-05
-0.179327
-4.0855e-05
-0.473385
-4.65725e-06
-0.42961
1.36292e-06
-0.389896
1.84257e-06
-0.353816
2.9612e-06
-0.321081
2.02656e-06
-0.291376
8.59848e-08
-0.264416
-4.47138e-06
-0.239955
-1.12249e-05
-0.21775
-1.93778e-05
-0.197604
-2.82724e-05
-0.179323
-3.69337e-05
-0.162733
-4.57325e-05
-0.473388
-2.49817e-06
-0.429616
1.11696e-06
-0.389896
1.46552e-06
-0.353819
4.82164e-06
-0.321084
5.98585e-06
-0.291379
4.98146e-06
-0.264418
1.2226e-06
-0.239954
-5.09926e-06
-0.217747
-1.33438e-05
-0.197601
-2.2674e-05
-0.179319
-3.23149e-05
-0.162728
-4.14651e-05
-0.147675
-5.03781e-05
-0.47339
-9.6917e-07
-0.429618
-2.92661e-07
-0.389895
-3.17275e-07
-0.353822
4.65182e-06
-0.321088
8.11696e-06
-0.291382
8.57988e-06
-0.264419
6.32648e-06
-0.239954
1.13024e-06
-0.217746
-6.60768e-06
-0.197598
-1.60652e-05
-0.179315
-2.62954e-05
-0.162724
-3.65437e-05
-0.147671
-4.60283e-05
-0.134012
-5.48929e-05
-0.47339
-5.76957e-07
-0.429617
-2.43619e-06
-0.389892
-2.79556e-06
-0.353825
2.85901e-06
-0.321091
8.33859e-06
-0.291384
1.06097e-05
-0.264421
1.04106e-05
-0.239955
6.97416e-06
-0.217745
3.77258e-07
-0.197596
-8.67815e-06
-0.179312
-1.92118e-05
-0.16272
-3.0219e-05
-0.147667
-4.08493e-05
-0.134008
-5.0436e-05
-0.12161
-5.90066e-05
-0.473389
-1.29404e-06
-0.429613
-4.4991e-06
-0.38989
-4.99081e-06
-0.353828
3.03066e-07
-0.321095
6.96412e-06
-0.291387
1.10533e-05
-0.264423
1.31414e-05
-0.239956
1.19339e-05
-0.217745
7.09731e-06
-0.197595
-9.58343e-07
-0.17931
-1.12727e-05
-0.162717
-2.27394e-05
-0.147662
-3.4355e-05
-0.134003
-4.52267e-05
-0.121606
-5.47401e-05
-0.110357
-6.29569e-05
-0.473387
-2.7124e-06
-0.429608
-5.93143e-06
-0.389888
-6.28449e-06
-0.353831
-1.99048e-06
-0.3211
4.88588e-06
-0.29139
1.04427e-05
-0.264427
1.46346e-05
-0.239959
1.57789e-05
-0.217747
1.31222e-05
-0.197594
6.64881e-06
-0.179308
-2.89106e-06
-0.162714
-1.43472e-05
-0.147659
-2.66132e-05
-0.133999
-3.86774e-05
-0.121601
-4.94819e-05
-0.110353
-5.88056e-05
-0.100146
-6.63909e-05
-0.473384
-4.22791e-06
-0.429605
-6.32962e-06
-0.389888
-6.37721e-06
-0.353834
-3.30785e-06
-0.321105
2.8916e-06
-0.291395
9.31608e-06
-0.264432
1.50943e-05
-0.239963
1.84183e-05
-0.217749
1.81292e-05
-0.197595
1.36786e-05
-0.179307
5.47005e-06
-0.162711
-5.44459e-06
-0.147655
-1.78575e-05
-0.133995
-3.07271e-05
-0.121597
-4.30089e-05
-0.110349
-5.3669e-05
-0.100142
-6.27108e-05
-0.0908798
-6.96229e-05
-0.473382
-5.35315e-06
-0.429603
-5.81215e-06
-0.389889
-5.53326e-06
-0.353837
-3.40457e-06
-0.32111
1.67071e-06
-0.2914
8.28457e-06
-0.264437
1.49528e-05
-0.239968
1.9989e-05
-0.217753
2.19389e-05
-0.197597
1.97754e-05
-0.179306
1.34028e-05
-0.162709
3.57623e-06
-0.147652
-8.49413e-06
-0.133991
-2.16803e-05
-0.121593
-3.49773e-05
-0.110344
-4.73422e-05
-0.100138
-5.76511e-05
-0.0908762
-6.63365e-05
-0.0824718
-7.22201e-05
-0.473381
-5.84525e-06
-0.429604
-4.70051e-06
-0.38989
-4.19538e-06
-0.35384
-2.54281e-06
-0.321115
1.37107e-06
-0.291406
7.61064e-06
-0.264443
1.4507e-05
-0.239973
2.07141e-05
-0.217757
2.46152e-05
-0.1976
2.47745e-05
-0.179307
2.05633e-05
-0.162708
1.23024e-05
-0.14765
1.05528e-06
-0.133988
-1.19664e-05
-0.121589
-2.57268e-05
-0.11034
-3.92548e-05
-0.100134
-5.15833e-05
-0.0908724
-6.15338e-05
-0.0824685
-6.97276e-05
-0.0748351
-7.46535e-05
-0.473381
-5.75893e-06
-0.429607
-3.5571e-06
-0.389892
-2.94194e-06
-0.353843
-1.27313e-06
-0.321119
1.83695e-06
-0.291412
7.37173e-06
-0.26445
1.4032e-05
-0.23998
2.08723e-05
-0.217763
2.62756e-05
-0.197604
2.85857e-05
-0.179309
2.66993e-05
-0.162708
2.04084e-05
-0.147648
1.04563e-05
-0.133985
-1.9669e-06
-0.121585
-1.57283e-05
-0.110336
-2.98616e-05
-0.10013
-4.35211e-05
-0.0908682
-5.57756e-05
-0.0824649
-6.51265e-05
-0.074832
-7.28393e-05
-0.0679135
-7.64652e-05
-0.473381
-5.30778e-06
-0.429609
-2.78773e-06
-0.389893
-2.11084e-06
-0.353846
-1.83121e-07
-0.321123
2.56429e-06
-0.291418
7.33666e-06
-0.264456
1.35581e-05
-0.239986
2.06646e-05
-0.217769
2.71685e-05
-0.197609
3.13551e-05
-0.179312
3.17642e-05
-0.162709
2.76866e-05
-0.147647
1.94123e-05
-0.133982
7.97114e-06
-0.121582
-5.42378e-06
-0.110332
-1.96862e-05
-0.100125
-3.40243e-05
-0.090864
-4.77339e-05
-0.0824608
-5.98144e-05
-0.0748286
-6.85519e-05
-0.0679106
-7.57663e-05
-0.0616253
-7.81811e-05
-0.47338
-4.74419e-06
-0.429612
-2.64896e-06
-0.389894
-1.86929e-06
-0.353849
3.28486e-07
-0.321126
3.08376e-06
-0.291422
7.24808e-06
-0.264462
1.30638e-05
-0.239993
2.0226e-05
-0.217776
2.74747e-05
-0.197615
3.31906e-05
-0.179317
3.5738e-05
-0.162711
3.39702e-05
-0.147647
2.76798e-05
-0.13398
1.76032e-05
-0.121579
4.92524e-06
-0.110328
-9.15668e-06
-0.100121
-2.36965e-05
-0.0908599
-3.81432e-05
-0.0824567
-5.18607e-05
-0.0748248
-6.37086e-05
-0.0679075
-7.16776e-05
-0.0616226
-7.84729e-05
-0.0559246
-7.92583e-05
-0.47338
-4.21325e-06
-0.429614
-3.06125e-06
-0.389895
-2.10136e-06
-0.353851
1.50881e-07
-0.321129
3.01801e-06
-0.291426
6.83085e-06
-0.264467
1.24014e-05
-0.24
1.95699e-05
-0.217783
2.73477e-05
-0.197621
3.43045e-05
-0.179322
3.87521e-05
-0.162715
3.92621e-05
-0.147648
3.51496e-05
-0.133979
2.67563e-05
-0.121576
1.51063e-05
-0.110325
1.44683e-06
-0.100118
-1.30664e-05
-0.0908559
-2.77137e-05
-0.0824527
-4.21968e-05
-0.0748208
-5.58384e-05
-0.0679038
-6.74123e-05
-0.0616197
-7.4667e-05
-0.055922
-8.09926e-05
-0.0507509
-8.02912e-05
-0.473379
-3.74952e-06
-0.429614
-3.78917e-06
-0.389895
-2.63859e-06
-0.353852
-5.80851e-07
-0.321131
2.29503e-06
-0.291429
5.99367e-06
-0.264472
1.14921e-05
-0.240006
1.86789e-05
-0.21779
2.68361e-05
-0.197629
3.47702e-05
-0.179329
4.08766e-05
-0.16272
4.35417e-05
-0.14765
4.17027e-05
-0.13398
3.52488e-05
-0.121574
2.4949e-05
-0.110322
1.19917e-05
-0.100114
-2.32238e-06
-0.090852
-1.70089e-05
-0.0824487
-3.16488e-05
-0.0748169
-4.61052e-05
-0.0679
-5.96496e-05
-0.0616162
-7.09612e-05
-0.0559194
-7.73368e-05
-0.0507486
-8.33152e-05
-0.0460529
-8.07227e-05
-0.473377
-3.30025e-06
-0.429614
-4.46902e-06
-0.389896
-3.25822e-06
-0.353853
-1.59705e-06
-0.321133
1.0443e-06
-0.291432
4.76747e-06
-0.264476
1.02809e-05
-0.240012
1.74998e-05
-0.217797
2.59533e-05
-0.197637
3.46826e-05
-0.179336
4.22155e-05
-0.162726
4.68875e-05
-0.147654
4.73299e-05
-0.133981
4.30105e-05
-0.121573
3.4352e-05
-0.110319
2.23909e-05
-0.10011
8.44198e-06
-0.090848
-6.25144e-06
-0.0824448
-2.09448e-05
-0.0748131
-3.54764e-05
-0.0678962
-4.98483e-05
-0.0616126
-6.32811e-05
-0.055916
-7.43094e-05
-0.0507462
-7.98597e-05
-0.0460507
-8.54887e-05
-0.0417916
-8.11856e-05
-0.473376
-2.82342e-06
-0.429612
-4.84019e-06
-0.389897
-3.85472e-06
-0.353854
-2.63612e-06
-0.321134
-4.22509e-07
-0.291434
3.33654e-06
-0.26448
8.83696e-06
-0.240018
1.6038e-05
-0.217805
2.46819e-05
-0.197645
3.4028e-05
-0.179344
4.27838e-05
-0.162733
4.92903e-05
-0.147659
5.19884e-05
-0.133983
4.99279e-05
-0.121574
4.31616e-05
-0.110317
3.24977e-05
-0.100107
1.91805e-05
-0.0908442
4.569e-06
-0.0824408
-1.02327e-05
-0.0748092
-2.47699e-05
-0.0678926
-3.91059e-05
-0.061609
-5.33849e-05
-0.0559126
-6.67226e-05
-0.050743
-7.74717e-05
-0.0460485
-8.20758e-05
-0.0417895
-8.75125e-05
-0.0379246
-8.1101e-05
-0.473375
-2.33645e-06
-0.42961
-4.75566e-06
-0.389897
-4.35606e-06
-0.353854
-3.52061e-06
-0.321135
-1.80211e-06
-0.291436
1.90607e-06
-0.264484
7.26313e-06
-0.240023
1.43348e-05
-0.217812
2.30414e-05
-0.197653
3.28418e-05
-0.179353
4.26187e-05
-0.162741
5.07866e-05
-0.147666
5.56565e-05
-0.133987
5.59506e-05
-0.121575
5.12946e-05
-0.110316
4.22247e-05
-0.100104
2.98394e-05
-0.0908405
1.55096e-05
-0.0824368
5.37061e-07
-0.0748053
-1.41936e-05
-0.0678889
-2.84575e-05
-0.0616056
-4.25433e-05
-0.0559092
-5.67374e-05
-0.0507398
-6.9971e-05
-0.0460455
-8.04376e-05
-0.0417875
-8.41802e-05
-0.0379227
-8.94143e-05
-0.0344147
-8.11035e-05
-0.473374
-1.93501e-06
-0.429608
-4.27652e-06
-0.389897
-4.76518e-06
-0.353854
-4.18467e-06
-0.321135
-2.85222e-06
-0.291439
6.69113e-07
-0.264488
5.71467e-06
-0.240028
1.24962e-05
-0.217818
2.10926e-05
-0.197661
3.11412e-05
-0.179362
4.17253e-05
-0.16275
5.13564e-05
-0.147673
5.82979e-05
-0.133993
6.09861e-05
-0.121578
5.86304e-05
-0.110317
5.14137e-05
-0.100102
4.02689e-05
-0.0908372
2.65004e-05
-0.0824328
1.14964e-05
-0.0748012
-3.58732e-06
-0.0678851
-1.80521e-05
-0.0616021
-3.19269e-05
-0.055906
-4.57531e-05
-0.0507366
-5.98737e-05
-0.0460425
-7.30131e-05
-0.0417848
-8.32204e-05
-0.0379209
-8.60058e-05
-0.0344129
-9.1191e-05
-0.0312297
-8.06172e-05
-0.473374
-1.73335e-06
-0.429606
-3.55956e-06
-0.389896
-5.04653e-06
-0.353855
-4.6254e-06
-0.321136
-3.48245e-06
-0.291441
-2.7746e-07
-0.264491
4.30167e-06
-0.240033
1.06411e-05
-0.217825
1.89425e-05
-0.197669
2.90301e-05
-0.179371
4.01739e-05
-0.162759
5.1039e-05
-0.147682
5.98825e-05
-0.133999
6.49479e-05
-0.121582
6.50412e-05
-0.110318
5.99585e-05
-0.100101
5.03605e-05
-0.0908344
3.74681e-05
-0.082429
2.26788e-05
-0.0747969
7.29669e-06
-0.067881
-7.68796e-06
-0.0615984
-2.17592e-05
-0.0559028
-3.52038e-05
-0.0507336
-4.87607e-05
-0.0460396
-6.28143e-05
-0.0417819
-7.58694e-05
-0.0379183
-8.58281e-05
-0.0344113
-8.77422e-05
-0.031228
-9.28692e-05
-0.0283399
-8.02713e-05
-0.473374
-1.80828e-06
-0.429606
-2.82537e-06
-0.389895
-5.16654e-06
-0.353855
-4.86198e-06
-0.321137
-3.70865e-06
-0.291444
-9.13308e-07
-0.264495
3.1052e-06
-0.240038
8.88322e-06
-0.217831
1.67261e-05
-0.197677
2.66162e-05
-0.17938
3.80555e-05
-0.162769
4.98752e-05
-0.147691
6.04106e-05
-0.134007
6.77741e-05
-0.121587
7.04226e-05
-0.110321
6.7702e-05
-0.100101
5.9958e-05
-0.0908322
4.82442e-05
-0.0824255
3.39647e-05
-0.0747928
1.8496e-05
-0.0678767
2.98707e-06
-0.0615944
-1.17187e-05
-0.0558993
-2.52756e-05
-0.0507306
-3.82398e-05
-0.0460368
-5.15308e-05
-0.0417792
-6.5537e-05
-0.0379156
-7.85219e-05
-0.0344088
-8.82535e-05
-0.0312265
-8.92309e-05
-0.0283383
-9.44413e-05
-0.0257173
-7.95077e-05
-0.473374
-2.13337e-06
-0.429605
-2.2328e-06
-0.389893
-5.05469e-06
-0.353855
-4.89233e-06
-0.321138
-3.63546e-06
-0.291446
-1.29529e-06
-0.264498
2.13747e-06
-0.240042
7.29716e-06
-0.217837
1.45608e-05
-0.197684
2.40659e-05
-0.179389
3.55161e-05
-0.162778
4.79884e-05
-0.147701
5.99256e-05
-0.134016
6.94177e-05
-0.121594
7.4637e-05
-0.110325
7.44901e-05
-0.100103
6.89031e-05
-0.090831
5.87121e-05
-0.0824225
4.52453e-05
-0.0747888
2.99651e-05
-0.0678723
1.41159e-05
-0.0615901
-1.31031e-06
-0.0558954
-1.55965e-05
-0.0507273
-2.85879e-05
-0.046034
-4.10657e-05
-0.0417766
-5.40939e-05
-0.0379131
-6.80721e-05
-0.0344064
-8.10031e-05
-0.0312242
-9.05277e-05
-0.028337
-9.06631e-05
-0.0257158
-9.59279e-05
-0.0233378
-7.89155e-05
-0.473374
-2.58986e-06
-0.429605
-1.87049e-06
-0.38989
-4.68908e-06
-0.353855
-4.70414e-06
-0.32114
-3.37821e-06
-0.291448
-1.49916e-06
-0.2645
1.37985e-06
-0.240046
5.92201e-06
-0.217842
1.2541e-05
-0.197691
2.14983e-05
-0.179397
3.2718e-05
-0.162788
4.55046e-05
-0.147712
5.85257e-05
-0.134026
6.98983e-05
-0.121602
7.76258e-05
-0.11033
8.0183e-05
-0.100105
7.70438e-05
-0.0908308
6.87021e-05
-0.0824201
5.63671e-05
-0.0747851
4.15379e-05
-0.0678679
2.56059e-05
-0.0615856
9.62816e-06
-0.0558911
-5.54045e-06
-0.0507236
-1.93141e-05
-0.0460309
-3.16781e-05
-0.041774
-4.36428e-05
-0.0379108
-5.64303e-05
-0.034404
-7.04032e-05
-0.031222
-8.32882e-05
-0.0283348
-9.26323e-05
-0.0257145
-9.18804e-05
-0.0233363
-9.73137e-05
-0.0211774
-7.79763e-05
-0.473373
-2.99883e-06
-0.429606
-1.72287e-06
-0.389888
-4.08757e-06
-0.353856
-4.2959e-06
-0.321142
-3.04279e-06
-0.29145
-1.60214e-06
-0.264503
7.87704e-07
-0.240049
4.75168e-06
-0.217847
1.07185e-05
-0.197697
1.90335e-05
-0.179406
2.98086e-05
-0.162798
4.26174e-05
-0.147722
5.6346e-05
-0.134037
6.92846e-05
-0.121612
7.93342e-05
-0.110337
8.46464e-05
-0.100109
8.419e-05
-0.0908318
7.80464e-05
-0.0824186
6.719e-05
-0.0747818
5.3115e-05
-0.0678637
3.73356e-05
-0.061581
2.10611e-05
-0.0558867
5.16526e-06
-0.0507195
-9.6287e-06
-0.0460274
-2.28219e-05
-0.0417712
-3.4542e-05
-0.0379084
-4.60153e-05
-0.0344019
-5.85786e-05
-0.0312198
-7.256e-05
-0.0283327
-8.54247e-05
-0.0257126
-9.46087e-05
-0.0233353
-9.30514e-05
-0.0211761
-9.86273e-05
-0.0192178
-7.72382e-05
-0.473373
-3.19903e-06
-0.429607
-1.72992e-06
-0.389887
-3.35849e-06
-0.353856
-3.71082e-06
-0.321143
-2.69819e-06
-0.291451
-1.65184e-06
-0.264504
3.23597e-07
-0.240052
3.76818e-06
-0.217851
9.10408e-06
-0.197703
1.67334e-05
-0.179414
2.69131e-05
-0.162808
3.94666e-05
-0.147733
5.35705e-05
-0.134048
6.76928e-05
-0.121622
7.98141e-05
-0.110346
8.7807e-05
-0.100115
9.02001e-05
-0.0908342
8.6569e-05
-0.0824181
7.75688e-05
-0.0747792
6.45602e-05
-0.0678598
4.91659e-05
-0.0615765
3.27889e-05
-0.055882
1.64297e-05
-0.0507151
7.73231e-07
-0.0460234
-1.35583e-05
-0.0417679
-2.61322e-05
-0.0379058
-3.71844e-05
-0.0343997
-4.81617e-05
-0.0312179
-6.05201e-05
-0.0283308
-7.45331e-05
-0.0257106
-8.73791e-05
-0.0233335
-9.64203e-05
-0.0211751
-9.40316e-05
-0.0192166
-9.98518e-05
-0.0174391
-7.62275e-05
-0.473372
-3.10347e-06
-0.429609
-1.80603e-06
-0.389885
-2.63801e-06
-0.353856
-3.04399e-06
-0.321144
-2.39208e-06
-0.291452
-1.67753e-06
-0.264506
-4.45532e-08
-0.240055
2.94156e-06
-0.217855
7.68985e-06
-0.197709
1.46296e-05
-0.179421
2.41266e-05
-0.162817
3.62134e-05
-0.147744
5.03571e-05
-0.13406
6.52996e-05
-0.121634
7.91204e-05
-0.110355
8.96336e-05
-0.100122
9.49277e-05
-0.0908381
9.40827e-05
-0.0824189
8.73062e-05
-0.0747774
7.57427e-05
-0.0678562
6.10094e-05
-0.0615721
4.47176e-05
-0.0558773
2.80705e-05
-0.0507105
1.18407e-05
-0.0460192
-3.46431e-06
-0.0417641
-1.72875e-05
-0.0379027
-2.92124e-05
-0.0343973
-3.96102e-05
-0.0312159
-5.01236e-05
-0.028329
-6.22955e-05
-0.0257088
-7.63507e-05
-0.0233317
-8.92039e-05
-0.0211734
-9.81197e-05
-0.0192157
-9.49827e-05
-0.0174379
-0.000101018
-0.0158254
-7.54178e-05
-0.473372
-2.72757e-06
-0.42961
-1.89276e-06
-0.389886
-2.07497e-06
-0.353857
-2.42141e-06
-0.321145
-2.15385e-06
-0.291453
-1.69065e-06
-0.264507
-3.34146e-07
-0.240057
2.24956e-06
-0.217858
6.45574e-06
-0.197714
1.27255e-05
-0.179428
2.14919e-05
-0.162826
3.2966e-05
-0.147755
4.6874e-05
-0.134072
6.22574e-05
-0.121646
7.74243e-05
-0.110366
9.01533e-05
-0.10013
9.83117e-05
-0.0908436
0.000100425
-0.082421
9.62248e-05
-0.0747766
8.65005e-05
-0.0678532
7.27751e-05
-0.0615678
5.67647e-05
-0.0558725
3.99389e-05
-0.0507057
2.32876e-05
-0.0460147
7.34499e-06
-0.0417601
-7.5392e-06
-0.0378991
-2.08156e-05
-0.0343944
-3.20921e-05
-0.0312137
-4.18351e-05
-0.0283272
-5.18852e-05
-0.0257072
-6.38888e-05
-0.02333
-7.8007e-05
-0.0211718
-9.08556e-05
-0.0192141
-9.96671e-05
-0.0174371
-9.57825e-05
-0.0158243
-0.0001021
-0.0143609
-7.43957e-05
-0.473371
-2.17355e-06
-0.42961
-1.95181e-06
-0.389885
-1.75533e-06
-0.353857
-1.95868e-06
-0.321146
-2.00645e-06
-0.291454
-1.70382e-06
-0.264509
-5.61743e-07
-0.240059
1.6717e-06
-0.217862
5.38174e-06
-0.197719
1.10166e-05
-0.179434
1.90438e-05
-0.162834
2.9804e-05
-0.147765
4.32651e-05
-0.134084
5.87483e-05
-0.121658
7.48428e-05
-0.110379
8.94714e-05
-0.100141
0.000100291
-0.0908507
0.000105462
-0.0824247
0.000104119
-0.074777
9.66396e-05
-0.0678511
8.43079e-05
-0.0615639
6.88766e-05
-0.0558678
5.2008e-05
-0.0507008
3.49953e-05
-0.04601
1.85673e-05
-0.0417557
3.02319e-06
-0.0378953
-1.13933e-05
-0.0343911
-2.41219e-05
-0.031211
-3.47471e-05
-0.0283252
-4.38615e-05
-0.0257056
-5.3487e-05
-0.0233285
-6.53441e-05
-0.0211703
-7.95205e-05
-0.0192126
-9.2395e-05
-0.0174357
-0.000101125
-0.0158235
-9.6565e-05
-0.0143598
-0.000103126
-0.0130317
-7.35632e-05
-0.473371
-1.59025e-06
-0.429611
-1.97739e-06
-0.389886
-1.69476e-06
-0.353857
-1.72326e-06
-0.321146
-1.95873e-06
-0.291454
-1.72798e-06
-0.26451
-7.42125e-07
-0.240061
1.19133e-06
-0.217864
4.45147e-06
-0.197723
9.48819e-06
-0.17944
1.67897e-05
-0.162842
2.67823e-05
-0.147775
3.96274e-05
-0.134095
5.49351e-05
-0.121671
7.15728e-05
-0.110391
8.76884e-05
-0.100152
0.000100938
-0.0908595
0.000109093
-0.0824301
0.000110831
-0.0747788
0.000105958
-0.0678499
9.5447e-05
-0.0615606
8.09497e-05
-0.0558632
6.42731e-05
-0.0506957
4.69407e-05
-0.046005
3.00111e-05
-0.0417511
1.39644e-05
-0.0378912
-1.10607e-06
-0.0343875
-1.50408e-05
-0.0312079
-2.72192e-05
-0.0283227
-3.72157e-05
-0.0257038
-4.57144e-05
-0.0233271
-5.49213e-05
-0.021169
-6.66385e-05
-0.0192113
-8.08922e-05
-0.0174343
-9.37834e-05
-0.0158222
-0.000102454
-0.0143592
-9.72237e-05
-0.0130307
-0.000104066
-0.0118257
-7.25791e-05
-0.47337
-1.11595e-06
-0.42961
-1.96673e-06
-0.389886
-1.82576e-06
-0.353857
-1.71024e-06
-0.321145
-2.00398e-06
-0.291454
-1.7746e-06
-0.26451
-8.94379e-07
-0.240062
7.89724e-07
-0.217867
3.64725e-06
-0.197726
8.13266e-06
-0.179445
1.47348e-05
-0.162849
2.39408e-05
-0.147784
3.60563e-05
-0.134107
5.09418e-05
-0.121684
6.77789e-05
-0.110405
8.49675e-05
-0.100165
0.000100278
-0.0908699
0.000111306
-0.0824372
0.00011619
-0.0747822
0.000114259
-0.0678499
0.00010598
-0.0615579
9.28336e-05
-0.0558589
7.66545e-05
-0.0506906
5.91716e-05
-0.0459998
4.17092e-05
-0.0417462
2.50997e-05
-0.0378867
9.56107e-06
-0.0343836
-4.99363e-06
-0.0312045
-1.84457e-05
-0.0283198
-3.00999e-05
-0.0257015
-3.94759e-05
-0.0233254
-4.73944e-05
-0.0211677
-5.622e-05
-0.0192101
-6.78159e-05
-0.0174331
-8.21385e-05
-0.015821
-9.50848e-05
-0.0143579
-0.000103711
-0.0130302
-9.78601e-05
-0.0118248
-0.000104961
-0.0107316
-7.17927e-05
-0.47337
-8.44918e-07
-0.429609
-1.92266e-06
-0.389886
-2.03834e-06
-0.353857
-1.85397e-06
-0.321145
-2.11208e-06
-0.291454
-1.84528e-06
-0.264511
-1.03443e-06
-0.240063
4.47885e-07
-0.217869
2.95397e-06
-0.19773
6.93233e-06
-0.17945
1.28775e-05
-0.162856
2.12978e-05
-0.147793
3.26135e-05
-0.134118
4.68948e-05
-0.121697
6.36152e-05
-0.110418
8.14891e-05
-0.100178
9.84591e-05
-0.0908817
0.000112079
-0.082446
0.000120137
-0.0747874
0.000121338
-0.0678513
0.000115714
-0.0615563
0.000104346
-0.0558551
8.90458e-05
-0.0506856
7.16635e-05
-0.0459944
5.3768e-05
-0.041741
3.6462e-05
-0.037882
2.03296e-05
-0.0343794
5.37418e-06
-0.0312008
-8.64732e-06
-0.0283167
-2.16388e-05
-0.0256988
-3.27817e-05
-0.0233233
-4.15732e-05
-0.0211661
-4.89303e-05
-0.0192089
-5.73757e-05
-0.017432
-6.88511e-05
-0.0158198
-8.32696e-05
-0.0143568
-9.62585e-05
-0.013029
-0.00010485
-0.0118243
-9.83991e-05
-0.0107308
-0.00010578
-0.00973872
-7.08888e-05
-0.473369
-8.05589e-07
-0.429608
-1.84701e-06
-0.389886
-2.20226e-06
-0.353857
-2.05115e-06
-0.321145
-2.23955e-06
-0.291454
-1.92989e-06
-0.264512
-1.17268e-06
-0.240065
1.46493e-07
-0.217871
2.35277e-06
-0.197733
5.87757e-06
-0.179454
1.12078e-05
-0.162862
1.88724e-05
-0.147801
2.93488e-05
-0.134128
4.28902e-05
-0.121709
5.92317e-05
-0.110432
7.7404e-05
-0.100192
9.5627e-05
-0.0908947
0.000111493
-0.0824565
0.00012257
-0.0747943
0.00012708
-0.0678544
0.000124408
-0.0615559
0.000115286
-0.055852
0.000101277
-0.0506809
8.43293e-05
-0.0459889
6.61933e-05
-0.0417354
4.82226e-05
-0.0378768
3.12846e-05
-0.0343749
1.57689e-05
-0.0311969
1.45169e-06
-0.0283132
-1.20429e-05
-0.0256958
-2.4594e-05
-0.0233208
-3.52636e-05
-0.0211642
-4.34843e-05
-0.0192075
-5.03147e-05
-0.017431
-5.84134e-05
-0.0158189
-6.97954e-05
-0.0143557
-8.42968e-05
-0.013028
-9.73557e-05
-0.0118233
-0.000105916
-0.0107303
-9.89146e-05
-0.00973792
-0.000106567
-0.00883666
-6.92594e-05
-0.473369
-9.65245e-07
-0.429607
-1.74184e-06
-0.389886
-2.2314e-06
-0.353857
-2.19215e-06
-0.321144
-2.33675e-06
-0.291455
-2.00788e-06
-0.264512
-1.30743e-06
-0.240066
-1.2636e-07
-0.217873
1.82535e-06
-0.197735
4.94924e-06
-0.179458
9.71794e-06
-0.162867
1.66574e-05
-0.147808
2.62979e-05
-0.134138
3.90051e-05
-0.121721
5.47641e-05
-0.110446
7.28996e-05
-0.100207
9.19412e-05
-0.0909088
0.000109672
-0.0824685
0.000123518
-0.0748031
0.000131319
-0.0678592
0.00013191
-0.0615569
0.000125414
-0.0558499
0.000113173
-0.0506767
9.70352e-05
-0.0459835
7.89382e-05
-0.0417297
6.04428e-05
-0.0378712
4.26666e-05
-0.0343698
2.62723e-05
-0.0311926
1.14456e-05
-0.0283096
-2.21765e-06
-0.0256927
-1.52009e-05
-0.0233181
-2.73503e-05
-0.0211619
-3.75662e-05
-0.0192058
-4.52546e-05
-0.0174297
-5.15739e-05
-0.015818
-5.93308e-05
-0.0143549
-7.06226e-05
-0.013027
-8.52328e-05
-0.0118223
-9.83386e-05
-0.0107294
-0.000106884
-0.00973748
-9.93766e-05
-0.00883667
-0.000106522
-0.00801248
-6.31279e-05
-0.473368
-1.24837e-06
-0.429607
-1.61534e-06
-0.389885
-2.0763e-06
-0.353857
-2.2053e-06
-0.321144
-2.35875e-06
-0.291455
-2.05584e-06
-0.264513
-1.42922e-06
-0.240067
-3.75187e-07
-0.217874
1.35788e-06
-0.197737
4.13052e-06
-0.179461
8.39264e-06
-0.162872
1.46572e-05
-0.147815
2.34703e-05
-0.134147
3.53053e-05
-0.121732
5.03161e-05
-0.110459
6.81312e-05
-0.100221
8.75909e-05
-0.0909236
0.000106737
-0.0824819
0.000123043
-0.0748136
0.00013402
-0.0678659
0.000138004
-0.0615595
0.000134551
-0.055849
0.000124493
-0.0506731
0.000109617
-0.0459783
9.18829e-05
-0.0417238
7.30933e-05
-0.0378654
5.45709e-05
-0.0343644
3.72028e-05
-0.0311878
2.14637e-05
-0.0283055
7.39415e-06
-0.0256893
-5.60774e-06
-0.0233152
-1.81108e-05
-0.0211594
-2.98871e-05
-0.0192036
-3.96892e-05
-0.0174281
-4.68551e-05
-0.0158168
-5.26986e-05
-0.0143541
-6.01539e-05
-0.0130263
-7.13869e-05
-0.0118214
-8.6074e-05
-0.0107285
-9.92509e-05
-0.00973661
-0.000107792
-0.00883613
-9.99452e-05
-0.00801766
-0.000101342
-0.00724943
-5.35528e-05
-0.473367
-1.54752e-06
-0.429606
-1.47945e-06
-0.389885
-1.75668e-06
-0.353857
-2.05517e-06
-0.321144
-2.28768e-06
-0.291455
-2.04988e-06
-0.264513
-1.5231e-06
-0.240067
-5.95024e-07
-0.217875
9.42054e-07
-0.19774
3.40588e-06
-0.179465
7.21311e-06
-0.162877
1.28563e-05
-0.147822
2.08807e-05
-0.134155
3.18159e-05
-0.121743
4.59895e-05
-0.110472
6.32435e-05
-0.100236
8.27642e-05
-0.0909389
0.000102885
-0.0824964
0.000121231
-0.0748257
0.00013518
-0.0678745
0.000142581
-0.061564
0.000142432
-0.0558495
0.000135052
-0.0506705
0.000121861
-0.0459736
0.0001049
-0.041718
8.60834e-05
-0.0378593
6.69989e-05
-0.0343585
4.87124e-05
-0.0311825
3.19071e-05
-0.028301
1.69158e-05
-0.0256855
3.61504e-06
-0.023312
-8.7459e-06
-0.0211567
-2.08003e-05
-0.0192013
-3.2246e-05
-0.0174261
-4.165e-05
-0.0158154
-4.83311e-05
-0.0143531
-5.37193e-05
-0.0130255
-6.08856e-05
-0.0118208
-7.20514e-05
-0.0107277
-8.68341e-05
-0.00973582
-0.000100069
-0.00883535
-0.000108614
-0.0080185
-9.91198e-05
-0.00726133
-8.94163e-05
-0.00654938
-4.30316e-05
-0.473366
-1.7794e-06
-0.429607
-1.34319e-06
-0.389885
-1.3298e-06
-0.353857
-1.7616e-06
-0.321144
-2.12139e-06
-0.291455
-1.98502e-06
-0.264514
-1.57299e-06
-0.240068
-7.7693e-07
-0.217876
5.77957e-07
-0.197741
2.76399e-06
-0.179467
6.16504e-06
-0.162881
1.12398e-05
-0.147827
1.85233e-05
-0.134163
2.85734e-05
-0.121753
4.18277e-05
-0.110485
5.83653e-05
-0.100251
7.76246e-05
-0.0909544
9.83027e-05
-0.0825118
0.000118247
-0.0748393
0.000134826
-0.0678849
0.000145583
-0.0615703
0.000148909
-0.0558516
0.000144569
-0.050669
0.000133586
-0.0459696
0.00011779
-0.0417124
9.92966e-05
-0.0378531
7.98638e-05
-0.0343523
6.08131e-05
-0.0311768
4.29663e-05
-0.0282959
2.68377e-05
-0.0256812
1.26319e-05
-0.0233085
1.21301e-07
-0.0211538
-1.16195e-05
-0.0191988
-2.32669e-05
-0.017424
-3.44066e-05
-0.0158136
-4.34458e-05
-0.0143517
-4.96535e-05
-0.0130246
-5.46348e-05
-0.0118201
-6.15484e-05
-0.0107271
-7.2665e-05
-0.00973514
-8.75076e-05
-0.00883461
-0.000100847
-0.00801835
-0.000108803
-0.00726805
-9.24061e-05
-0.0065636
-7.51956e-05
-0.00591146
-3.30056e-05
-0.473365
-1.87528e-06
-0.429607
-1.21599e-06
-0.389886
-8.89693e-07
-0.353857
-1.37822e-06
-0.321144
-1.88635e-06
-0.291456
-1.86203e-06
-0.264514
-1.57407e-06
-0.240069
-9.09741e-07
-0.217878
2.70107e-07
-0.197743
2.20099e-06
-0.17947
5.23192e-06
-0.162884
9.79206e-06
-0.147832
1.63856e-05
-0.13417
2.55828e-05
-0.121762
3.78962e-05
-0.110496
5.35708e-05
-0.100264
7.23428e-05
-0.0909699
9.31804e-05
-0.0825277
0.000114272
-0.0748541
0.000133079
-0.067897
0.000146958
-0.0615786
0.000153847
-0.0558556
0.000152847
-0.0506689
0.000144502
-0.0459664
0.000130393
-0.0417072
0.000112573
-0.0378468
9.30793e-05
-0.0343459
7.34312e-05
-0.0311706
5.46739e-05
-0.0282903
3.74116e-05
-0.0256764
2.20271e-05
-0.0233045
8.64368e-06
-0.0211506
-3.1041e-06
-0.0191962
-1.42642e-05
-0.0174217
-2.55389e-05
-0.0158116
-3.64079e-05
-0.0143501
-4.50931e-05
-0.0130234
-5.08742e-05
-0.0118193
-5.54693e-05
-0.0107265
-6.21313e-05
-0.00973461
-7.31855e-05
-0.00883399
-8.81256e-05
-0.00801772
-0.000101508
-0.00727247
-0.000104419
-0.00657383
-8.21892e-05
-0.00592571
-6.09339e-05
-0.0053332
-2.39361e-05
-0.473364
-1.77195e-06
-0.429608
-1.09961e-06
-0.389886
-5.12291e-07
-0.353856
-9.84702e-07
-0.321144
-1.62028e-06
-0.291456
-1.70022e-06
-0.264515
-1.52553e-06
-0.240069
-9.90257e-07
-0.217878
2.31843e-08
-0.197744
1.7183e-06
-0.179472
4.40884e-06
-0.162888
8.49482e-06
-0.147837
1.44565e-05
-0.134176
2.28414e-05
-0.121771
3.42148e-05
-0.110507
4.89523e-05
-0.100278
6.70122e-05
-0.0909853
8.77102e-05
-0.082544
0.000109494
-0.07487
0.000130091
-0.0679107
0.000146779
-0.0615887
0.000157138
-0.0558614
0.000159713
-0.0506705
0.000154401
-0.0459643
0.000142436
-0.0417026
0.000125774
-0.0378408
0.000106505
-0.0343393
8.64812e-05
-0.0311641
6.69442e-05
-0.0282844
4.86749e-05
-0.0256711
3.2098e-05
-0.0233
1.75029e-05
-0.0211469
4.93161e-06
-0.0191932
-6.06196e-06
-0.0174193
-1.66751e-05
-0.0158095
-2.76144e-05
-0.0143482
-3.82268e-05
-0.0130219
-4.65925e-05
-0.0118181
-5.19682e-05
-0.0107258
-5.62205e-05
-0.00973407
-6.26545e-05
-0.00883351
-7.36784e-05
-0.00801716
-8.86825e-05
-0.00727432
-9.96921e-05
-0.00658338
-9.4893e-05
-0.0059367
-7.11978e-05
-0.00534627
-4.78793e-05
-0.0048107
-1.62279e-05
-0.473364
-1.51709e-06
-0.429609
-9.8884e-07
-0.389887
-2.6383e-07
-0.353856
-6.47162e-07
-0.321143
-1.36514e-06
-0.291456
-1.52316e-06
-0.264515
-1.43939e-06
-0.24007
-1.01863e-06
-0.217879
-1.6098e-07
-0.197746
1.31388e-06
-0.179474
3.69365e-06
-0.162891
7.34058e-06
-0.147841
1.27137e-05
-0.134182
2.0344e-05
-0.121779
3.07972e-05
-0.110518
4.45563e-05
-0.100291
6.17664e-05
-0.0910003
8.20156e-05
-0.0825605
0.000104128
-0.0748865
0.000126031
-0.0679258
0.00014514
-0.0616007
0.000158777
-0.0558693
0.000164987
-0.0506738
0.00016307
-0.0459636
0.000153702
-0.0416988
0.000138646
-0.037835
0.000120035
-0.0343327
9.98603e-05
-0.0311574
7.97084e-05
-0.0282779
6.05385e-05
-0.0256653
4.28962e-05
-0.023295
2.70644e-05
-0.0211426
1.32698e-05
-0.0191898
1.51071e-06
-0.0174166
-8.77832e-06
-0.0158073
-1.88873e-05
-0.0143463
-2.95165e-05
-0.0130202
-3.99017e-05
-0.0118168
-4.79672e-05
-0.0107247
-5.29846e-05
-0.00973338
-5.68965e-05
-0.00883303
-6.31095e-05
-0.00801671
-7.41088e-05
-0.00727471
-8.82999e-05
-0.00659112
-9.19754e-05
-0.0059477
-8.39207e-05
-0.00535674
-6.07417e-05
-0.00482206
-3.65069e-05
-0.00433963
-9.77606e-06
-0.473364
-1.12508e-06
-0.429609
-8.78667e-07
-0.389887
-1.97711e-07
-0.353856
-4.20419e-07
-0.321143
-1.15219e-06
-0.291456
-1.3552e-06
-0.264515
-1.33191e-06
-0.24007
-1.00526e-06
-0.21788
-2.8596e-07
-0.197747
9.89022e-07
-0.179476
3.07885e-06
-0.162893
6.32697e-06
-0.147845
1.11512e-05
-0.134187
1.8069e-05
-0.121786
2.7649e-05
-0.110527
4.04134e-05
-0.100303
5.66747e-05
-0.0910148
7.62626e-05
-0.0825768
9.83097e-05
-0.0749035
0.000121118
-0.0679419
0.000142184
-0.0616144
0.000158808
-0.0558791
0.000168608
-0.0506791
0.00017029
-0.0459645
0.000163969
-0.0416961
0.00015099
-0.0378298
0.000133449
-0.0343261
0.000113487
-0.0311504
9.28782e-05
-0.0282712
7.292e-05
-0.0256591
5.4306e-05
-0.0232895
3.73816e-05
-0.0211379
2.23283e-05
-0.0191858
9.33498e-06
-0.0174134
-1.65205e-06
-0.0158048
-1.12586e-05
-0.0143443
-2.08961e-05
-0.0130185
-3.12429e-05
-0.0118152
-4.14161e-05
-0.0107235
-4.92201e-05
-0.00973246
-5.38894e-05
-0.00883241
-5.75066e-05
-0.00801626
-6.35425e-05
-0.0072745
-7.43318e-05
-0.00659667
-8.27423e-05
-0.00595801
-8.16863e-05
-0.00536754
-7.3126e-05
-0.0048314
-5.13993e-05
-0.00434915
-2.69965e-05
-0.00391538
-4.62931e-06
-0.473364
-6.70702e-07
-0.42961
-7.65444e-07
-0.389888
-2.73431e-07
-0.353856
-3.51143e-07
-0.321142
-1.00132e-06
-0.291456
-1.21367e-06
-0.264515
-1.22049e-06
-0.240071
-9.63967e-07
-0.217881
-3.61544e-07
-0.197748