/*--------------------------------*- C++ -*----------------------------------*\
  =========                 |
  \\      /  F ield         | OpenFOAM: The Open Source CFD Toolbox
   \\    /   O peration     | Website:  https://openfoam.org
    \\  /    A nd           | Version:  dev
     \\/     M anipulation  |
\*---------------------------------------------------------------------------*/
FoamFile
{
    version     2.0;
    format      ascii;
    class       volVectorField;
    location    "375";
    object      U;
}
// * * * * * * * * * * * * * * * * * * * * * * * * * * * * * * * * * * * * * //

dimensions      [0 1 -1 0 0 0 0];

internalField   nonuniform List<vector> 
29380
(
(51.0633 -0.0039736 0)
(51.0637 -0.00394566 0)
(51.0641 -2.06058e-05 0)
(51.0634 -0.00314889 0)
(51.0654 -0.000666715 0)
(51.07 -0.00242525 0)
(51.0632 -0.00225985 0)
(51.0661 -0.00105632 0)
(51.0698 -0.00229069 0)
(51.0712 -0.000803013 0)
(51.0629 -0.00157674 0)
(51.0661 -0.00111277 0)
(51.0703 -0.00246614 0)
(51.0715 -0.000224107 0)
(51.0742 -0.00199428 0)
(51.0626 -0.00144783 0)
(51.0656 -0.000976411 0)
(51.0706 -0.00264453 0)
(51.0715 -0.000225149 0)
(51.0739 -0.00199122 0)
(51.0759 -0.00133743 0)
(51.0624 -0.00202495 0)
(51.0648 -0.000687418 0)
(51.0708 -0.00277341 0)
(51.0714 -0.000383891 0)
(51.0733 -0.00232573 0)
(51.0746 -0.00141672 0)
(51.077 -0.00276687 0)
(51.0622 -0.00316416 0)
(51.0641 -0.000310343 0)
(51.0709 -0.00272285 0)
(51.0712 -0.000545154 0)
(51.0727 -0.00253964 0)
(51.0739 -0.00163857 0)
(51.0758 -0.00288163 0)
(51.0784 -0.00283126 0)
(51.0621 -0.00447286 0)
(51.0639 0.0001294 0)
(51.0711 -0.00241827 0)
(51.0712 -0.000519732 0)
(51.0724 -0.00255829 0)
(51.0736 -0.00161212 0)
(51.0753 -0.00290406 0)
(51.0773 -0.00282278 0)
(51.0795 -0.00376896 0)
(51.0622 -0.00544274 0)
(51.0643 0.000627882 0)
(51.0715 -0.00189667 0)
(51.0712 -0.000207771 0)
(51.0723 -0.00220549 0)
(51.0736 -0.00132404 0)
(51.075 -0.00262037 0)
(51.0768 -0.00269944 0)
(51.0783 -0.00368438 0)
(51.0805 -0.00409231 0)
(51.0625 -0.00566504 0)
(51.0653 0.00114289 0)
(51.0719 -0.00130081 0)
(51.0714 0.000330689 0)
(51.0726 -0.00144924 0)
(51.074 -0.000708329 0)
(51.075 -0.00204805 0)
(51.0763 -0.00228339 0)
(51.0776 -0.00348551 0)
(51.0791 -0.00399681 0)
(51.0812 -0.00488797 0)
(51.0629 -0.00499683 0)
(51.0664 0.00157611 0)
(51.0724 -0.00084829 0)
(51.0717 0.000885515 0)
(51.0729 -0.000420091 0)
(51.0745 0.000173644 0)
(51.0752 -0.00117462 0)
(51.0761 -0.00159878 0)
(51.0769 -0.00299105 0)
(51.0782 -0.00376397 0)
(51.0795 -0.00477624 0)
(51.0817 -0.00537555 0)
(51.0633 -0.0036431 0)
(51.0675 0.0017752 0)
(51.0726 -0.000737737 0)
(51.0722 0.00120742 0)
(51.0734 0.000622177 0)
(51.0751 0.0011635 0)
(51.0754 -9.30747e-05 0)
(51.0759 -0.000650904 0)
(51.0763 -0.00222433 0)
(51.0772 -0.0032318 0)
(51.0784 -0.0045151 0)
(51.0799 -0.00527585 0)
(51.0821 -0.0060808 0)
(51.0636 -0.00208072 0)
(51.0681 0.00160814 0)
(51.0725 -0.00106983 0)
(51.0726 0.00111464 0)
(51.0738 0.00137438 0)
(51.0756 0.00205528 0)
(51.0757 0.00105215 0)
(51.0758 0.000487069 0)
(51.0759 -0.00117971 0)
(51.0765 -0.00241431 0)
(51.0773 -0.00394603 0)
(51.0787 -0.00500747 0)
(51.0802 -0.00599153 0)
(51.0825 -0.00659764 0)
(51.0638 -0.000886985 0)
(51.0681 0.00102833 0)
(51.0722 -0.00178621 0)
(51.0731 0.000596525 0)
(51.0744 0.00161651 0)
(51.076 0.00266621 0)
(51.0759 0.00209525 0)
(51.0759 0.00170918 0)
(51.0757 9.04341e-05 0)
(51.0759 -0.00129721 0)
(51.0764 -0.0030751 0)
(51.0774 -0.00443267 0)
(51.0788 -0.00572611 0)
(51.0804 -0.00654571 0)
(51.0827 -0.00720057 0)
(51.0637 -0.000512597 0)
(51.0676 0.000137843 0)
(51.0717 -0.00268665 0)
(51.0735 -0.000188909 0)
(51.075 0.00129629 0)
(51.0763 0.00290603 0)
(51.0763 0.00290584 0)
(51.0761 0.00289936 0)
(51.0756 0.00150502 0)
(51.0754 8.43048e-05 0)
(51.0756 -0.00188005 0)
(51.0763 -0.00354198 0)
(51.0773 -0.00515837 0)
(51.0789 -0.00630643 0)
(51.0805 -0.00719158 0)
(51.0829 -0.00768548 0)
(51.0634 -0.00111979 0)
(51.0669 -0.000837472 0)
(51.0713 -0.0034955 0)
(51.074 -0.000969856 0)
(51.0757 0.000563959 0)
(51.0768 0.00280736 0)
(51.0768 0.00342642 0)
(51.0765 0.0039589 0)
(51.0757 0.00296258 0)
(51.0752 0.00166632 0)
(51.0749 -0.000384659 0)
(51.0752 -0.00230892 0)
(51.076 -0.00426151 0)
(51.0772 -0.00577303 0)
(51.0789 -0.00698877 0)
(51.0806 -0.00773406 0)
(51.083 -0.00819281 0)
(51.0631 -0.00252439 0)
(51.0663 -0.00161682 0)
(51.0711 -0.00397191 0)
(51.0744 -0.00149175 0)
(51.0765 -0.000290398 0)
(51.0775 0.00251186 0)
(51.0776 0.00368802 0)
(51.0771 0.00483451 0)
(51.0761 0.00436846 0)
(51.0752 0.0033615 0)
(51.0745 0.00136051 0)
(51.0744 -0.000746373 0)
(51.0747 -0.00300524 0)
(51.0757 -0.00489574 0)
(51.0771 -0.00650443 0)
(51.0789 -0.00757798 0)
(51.0807 -0.00830897 0)
(51.0831 -0.00860706 0)
(51.0627 -0.00428278 0)
(51.0659 -0.00199294 0)
(51.0711 -0.0040002 0)
(51.0748 -0.00161241 0)
(51.0773 -0.000939997 0)
(51.0784 0.00220951 0)
(51.0786 0.00378786 0)
(51.078 0.0055199 0)
(51.0767 0.00564899 0)
(51.0754 0.00507682 0)
(51.0742 0.00328081 0)
(51.0736 0.00111 0)
(51.0736 -0.00139405 0)
(51.0742 -0.00364278 0)
(51.0753 -0.00566086 0)
(51.0769 -0.00715902 0)
(51.0789 -0.00820397 0)
(51.0808 -0.00881028 0)
(51.0832 -0.00900574 0)
(51.0625 -0.00585966 0)
(51.0659 -0.00192038 0)
(51.0713 -0.00363534 0)
(51.0753 -0.00136518 0)
(51.0781 -0.00115597 0)
(51.0795 0.00206377 0)
(51.0798 0.00384796 0)
(51.0792 0.00605334 0)
(51.0777 0.0067707 0)
(51.076 0.00673284 0)
(51.0743 0.00529159 0)
(51.0731 0.00320218 0)
(51.0726 0.00054831 0)
(51.0728 -0.00201408 0)
(51.0736 -0.00442709 0)
(51.075 -0.00636532 0)
(51.0768 -0.00785959 0)
(51.0789 -0.0087644 0)
(51.0808 -0.00931125 0)
(51.0831 -0.00932853 0)
(51.0624 -0.00682355 0)
(51.0661 -0.00155596 0)
(51.0717 -0.00307517 0)
(51.0757 -0.00091828 0)
(51.0789 -0.000886445 0)
(51.0806 0.00214521 0)
(51.0811 0.00396297 0)
(51.0805 0.00648941 0)
(51.0789 0.00773336 0)
(51.0769 0.00827687 0)
(51.0746 0.00731537 0)
(51.0729 0.00546105 0)
(51.0718 0.00278085 0)
(51.0715 -2.44751e-05 0)
(51.072 -0.0028004 0)
(51.0731 -0.00516988 0)
(51.0746 -0.00712263 0)
(51.0766 -0.00850644 0)
(51.0788 -0.00932857 0)
(51.0808 -0.00974998 0)
(51.0831 -0.00962599 0)
(51.0624 -0.00697473 0)
(51.0666 -0.00118779 0)
(51.072 -0.00258196 0)
(51.0762 -0.000498756 0)
(51.0795 -0.000281912 0)
(51.0816 0.00240732 0)
(51.0824 0.0041653 0)
(51.082 0.00687766 0)
(51.0803 0.00856584 0)
(51.078 0.00968979 0)
(51.0753 0.00929414 0)
(51.073 0.00781817 0)
(51.0713 0.00525185 0)
(51.0705 0.00229993 0)
(51.0705 -0.000790914 0)
(51.0712 -0.00357059 0)
(51.0725 -0.0059748 0)
(51.0743 -0.00783311 0)
(51.0764 -0.00916739 0)
(51.0788 -0.00983191 0)
(51.0808 -0.0101781 0)
(51.0831 -0.00986259 0)
(51.0624 -0.00638145 0)
(51.067 -0.00111353 0)
(51.0722 -0.00238187 0)
(51.0766 -0.00028125 0)
(51.0801 0.000373191 0)
(51.0826 0.00270573 0)
(51.0835 0.00441371 0)
(51.0834 0.00723622 0)
(51.0819 0.00929888 0)
(51.0795 0.0109765 0)
(51.0764 0.0111962 0)
(51.0735 0.010217 0)
(51.0711 0.00790723 0)
(51.0696 0.00492645 0)
(51.0691 0.00158869 0)
(51.0694 -0.00157491 0)
(51.0705 -0.00441708 0)
(51.072 -0.00673838 0)
(51.074 -0.00856154 0)
(51.0763 -0.0097774 0)
(51.0787 -0.0103198 0)
(51.0808 -0.0105651 0)
(51.083 -0.0100664 0)
(51.0624 -0.00531134 0)
(51.0674 -0.00149098 0)
(51.0723 -0.00258871 0)
(51.0769 -0.000336302 0)
(51.0805 0.00076235 0)
(51.0833 0.00285855 0)
(51.0846 0.00461397 0)
(51.0848 0.00754696 0)
(51.0835 0.00995212 0)
(51.0812 0.0121527 0)
(51.0778 0.0130095 0)
(51.0744 0.0126171 0)
(51.0712 0.0106978 0)
(51.069 0.00781937 0)
(51.0678 0.0043236 0)
(51.0677 0.000815762 0)
(51.0684 -0.00245993 0)
(51.0697 -0.00523185 0)
(51.0715 -0.00752261 0)
(51.0737 -0.00924407 0)
(51.0761 -0.0103773 0)
(51.0786 -0.010762 0)
(51.0807 -0.010937 0)
(51.0828 -0.0102194 0)
(51.0623 -0.00411793 0)
(51.0675 -0.00225897 0)
(51.0723 -0.00317649 0)
(51.0772 -0.000623363 0)
(51.0809 0.00065962 0)
(51.0838 0.002716 0)
(51.0855 0.00465721 0)
(51.0862 0.00775927 0)
(51.0852 0.0105145 0)
(51.083 0.0132229 0)
(51.0796 0.0147294 0)
(51.0757 0.0149912 0)
(51.0718 0.0135826 0)
(51.0688 0.0109434 0)
(51.0669 0.00739759 0)
(51.0661 0.0036051 0)
(51.0664 -9.46139e-05 0)
(51.0675 -0.00333131 0)
(51.0691 -0.00607028 0)
(51.071 -0.0082636 0)
(51.0733 -0.00991572 0)
(51.0759 -0.0109349 0)
(51.0785 -0.0111823 0)
(51.0807 -0.0112734 0)
(51.0827 -0.0103411 0)
(51.0621 -0.00312235 0)
(51.0674 -0.00314481 0)
(51.0724 -0.00400718 0)
(51.0773 -0.0010571 0)
(51.0812 -2.15455e-06 0)
(51.0842 0.00221785 0)
(51.0863 0.00446372 0)
(51.0874 0.00781268 0)
(51.0869 0.0109506 0)
(51.085 0.0141714 0)
(51.0816 0.0163419 0)
(51.0774 0.0173145 0)
(51.0729 0.0165256 0)
(51.0691 0.0142649 0)
(51.0663 0.0107923 0)
(51.0648 0.0067972 0)
(51.0645 0.00269979 0)
(51.0652 -0.00102278 0)
(51.0666 -0.00423686 0)
(51.0684 -0.00686864 0)
(51.0706 -0.00899285 0)
(51.073 -0.0105423 0)
(51.0757 -0.0114749 0)
(51.0784 -0.0115589 0)
(51.0806 -0.0115944 0)
(51.0825 -0.0104219 0)
(51.0619 -0.00254872 0)
(51.0672 -0.00378583 0)
(51.0725 -0.00489301 0)
(51.0775 -0.00157362 0)
(51.0814 -0.00111423 0)
(51.0846 0.00141112 0)
(51.087 0.00401191 0)
(51.0887 0.00765906 0)
(51.0886 0.0112081 0)
(51.0871 0.0149567 0)
(51.0838 0.0178141 0)
(51.0794 0.019553 0)
(51.0745 0.0194885 0)
(51.0698 0.0177481 0)
(51.0661 0.014487 0)
(51.0637 0.0103923 0)
(51.0627 0.00594857 0)
(51.063 0.00173093 0)
(51.0641 -0.00200621 0)
(51.0658 -0.00510933 0)
(51.0679 -0.00765425 0)
(51.0702 -0.00967179 0)
(51.0727 -0.0111475 0)
(51.0756 -0.0119741 0)
(51.0783 -0.0119095 0)
(51.0805 -0.0118896 0)
(51.0823 -0.0104748 0)
(51.0617 -0.00250827 0)
(51.0669 -0.00388547 0)
(51.0726 -0.00566364 0)
(51.0775 -0.0021824 0)
(51.0816 -0.00244962 0)
(51.085 0.000429089 0)
(51.0878 0.00334488 0)
(51.0898 0.007284 0)
(51.0903 0.0112424 0)
(51.0892 0.0155267 0)
(51.0862 0.0190938 0)
(51.0818 0.0216557 0)
(51.0765 0.0224201 0)
(51.0711 0.0213479 0)
(51.0664 0.0184538 0)
(51.063 0.0143849 0)
(51.0612 0.00967138 0)
(51.0608 0.00497637 0)
(51.0616 0.000672036 0)
(51.0631 -0.00297278 0)
(51.0651 -0.00597389 0)
(51.0673 -0.00838607 0)
(51.0698 -0.0103246 0)
(51.0725 -0.0117098 0)
(51.0754 -0.0124492 0)
(51.0781 -0.012224 0)
(51.0804 -0.0121716 0)
(51.0821 -0.0104953 0)
(51.0616 -0.00302318 0)
(51.0667 -0.00336198 0)
(51.0727 -0.00620981 0)
(51.0775 -0.00294397 0)
(51.0817 -0.00374321 0)
(51.0854 -0.000561361 0)
(51.0885 0.00255182 0)
(51.091 0.00671218 0)
(51.0919 0.0110321 0)
(51.0913 0.0158334 0)
(51.0887 0.0201205 0)
(51.0845 0.023557 0)
(51.0789 0.0252539 0)
(51.0728 0.0250035 0)
(51.0672 0.0226513 0)
(51.0628 0.0187597 0)
(51.06 0.0138801 0)
(51.0588 0.00875366 0)
(51.0591 0.00386464 0)
(51.0603 -0.000397854 0)
(51.0622 -0.00394324 0)
(51.0644 -0.0067854 0)
(51.0668 -0.00908551 0)
(51.0694 -0.0109303 0)
(51.0722 -0.0122441 0)
(51.0752 -0.0128883 0)
(51.0779 -0.0125146 0)
(51.0802 -0.0124324 0)
(51.0818 -0.0104934 0)
(51.0615 -0.00404983 0)
(51.0664 -0.00239139 0)
(51.0727 -0.00649246 0)
(51.0775 -0.00391304 0)
(51.0818 -0.00478055 0)
(51.0859 -0.00141606 0)
(51.0893 0.00173581 0)
(51.0921 0.00600085 0)
(51.0934 0.0105923 0)
(51.0934 0.0158545 0)
(51.0913 0.0208423 0)
(51.0873 0.0251858 0)
(51.0816 0.0279076 0)
(51.0751 0.028633 0)
(51.0686 0.0270171 0)
(51.0631 0.0234856 0)
(51.0592 0.018575 0)
(51.0571 0.0130923 0)
(51.0566 0.00763107 0)
(51.0574 0.0027007 0)
(51.0592 -0.00149278 0)
(51.0614 -0.0048697 0)
(51.0638 -0.0075627 0)
(51.0663 -0.0097332 0)
(51.069 -0.0115033 0)
(51.0719 -0.0127382 0)
(51.075 -0.013304 0)
(51.0777 -0.0127744 0)
(51.08 -0.0126813 0)
(51.0814 -0.0104659 0)
(51.0615 -0.00548642 0)
(51.0662 -0.00134555 0)
(51.0726 -0.00652493 0)
(51.0776 -0.00505166 0)
(51.0819 -0.00544206 0)
(51.0863 -0.00205509 0)
(51.09 0.000980712 0)
(51.0931 0.00522053 0)
(51.0949 0.00996836 0)
(51.0954 0.0156002 0)
(51.0938 0.0212321 0)
(51.0903 0.0264813 0)
(51.0847 0.0302959 0)
(51.0779 0.0321401 0)
(51.0706 0.031465 0)
(51.0641 0.0285081 0)
(51.0589 0.0237405 0)
(51.0556 0.0180105 0)
(51.0543 0.0120186 0)
(51.0545 0.00640023 0)
(51.056 0.00148044 0)
(51.0582 -0.00256152 0)
(51.0607 -0.00576522 0)
(51.0633 -0.00828443 0)
(51.0659 -0.0103421 0)
(51.0686 -0.0120305 0)
(51.0716 -0.0132039 0)
(51.0747 -0.0136876 0)
(51.0775 -0.0130129 0)
(51.0798 -0.0129123 0)
(51.081 -0.0104208 0)
(51.0615 -0.00715173 0)
(51.0661 -0.00063553 0)
(51.0723 -0.00634539 0)
(51.0776 -0.00619603 0)
(51.0821 -0.00571332 0)
(51.0868 -0.00247147 0)
(51.0906 0.000331235 0)
(51.094 0.00443536 0)
(51.0963 0.00922537 0)
(51.0973 0.015114 0)
(51.0964 0.021296 0)
(51.0934 0.0274061 0)
(51.0881 0.0323414 0)
(51.0811 0.0354207 0)
(51.0732 0.0358877 0)
(51.0656 0.033746 0)
(51.0592 0.0293378 0)
(51.0547 0.0235112 0)
(51.0522 0.0170626 0)
(51.0517 0.010763 0)
(51.0527 0.00506982 0)
(51.0547 0.000260966 0)
(51.0572 -0.0036094 0)
(51.06 -0.00660571 0)
(51.0628 -0.00896371 0)
(51.0655 -0.0108996 0)
(51.0682 -0.0125237 0)
(51.0712 -0.0136333 0)
(51.0744 -0.0140492 0)
(51.0772 -0.013226 0)
(51.0795 -0.0131322 0)
(51.0805 -0.0103577 0)
(51.0615 -0.008784 0)
(51.0661 -0.000544167 0)
(51.072 -0.0059993 0)
(51.0776 -0.0070812 0)
(51.0823 -0.00565361 0)
(51.0872 -0.00271344 0)
(51.0912 -0.000208799 0)
(51.0949 0.00368786 0)
(51.0976 0.00842678 0)
(51.0992 0.0144576 0)
(51.0989 0.0210713 0)
(51.0965 0.0279546 0)
(51.0917 0.0339903 0)
(51.0847 0.0383797 0)
(51.0764 0.0401675 0)
(51.0678 0.0390922 0)
(51.0601 0.0352995 0)
(51.0542 0.0295766 0)
(51.0506 0.0227872 0)
(51.0491 0.0158409 0)
(51.0494 0.00935032 0)
(51.051 0.00370685 0)
(51.0535 -0.000954477 0)
(51.0564 -0.00460793 0)
(51.0594 -0.00740169 0)
(51.0623 -0.00958638 0)
(51.065 -0.0114161 0)
(51.0678 -0.012975 0)
(51.0708 -0.0140355 0)
(51.0741 -0.0143828 0)
(51.0768 -0.0134213 0)
(51.0791 -0.0133363 0)
(51.08 -0.0102841 0)
(51.0615 -0.0100566 0)
(51.0662 -0.00111277 0)
(51.0717 -0.0055428 0)
(51.0777 -0.00744142 0)
(51.0826 -0.00536041 0)
(51.0876 -0.00285093 0)
(51.0917 -0.000662354 0)
(51.0957 0.00299617 0)
(51.0988 0.0076222 0)
(51.1009 0.0136963 0)
(51.1013 0.0206153 0)
(51.0996 0.0281513 0)
(51.0954 0.0352175 0)
(51.0887 0.04094 0)
(51.0801 0.0441873 0)
(51.0707 0.0444218 0)
(51.0618 0.0415295 0)
(51.0544 0.0361613 0)
(51.0493 0.0291993 0)
(51.0467 0.0216788 0)
(51.0461 0.0143853 0)
(51.0473 0.00785932 0)
(51.0496 0.00232398 0)
(51.0525 -0.00213029 0)
(51.0557 -0.00556324 0)
(51.0589 -0.00813853 0)
(51.0618 -0.0101632 0)
(51.0646 -0.0118857 0)
(51.0674 -0.0133941 0)
(51.0704 -0.014405 0)
(51.0737 -0.014697 0)
(51.0764 -0.0135952 0)
(51.0787 -0.01353 0)
(51.0795 -0.0101993 0)
(51.0614 -0.0106441 0)
(51.0664 -0.00214436 0)
(51.0714 -0.00505327 0)
(51.0777 -0.0071289 0)
(51.0829 -0.00493771 0)
(51.0879 -0.00294652 0)
(51.0921 -0.00105986 0)
(51.0963 0.00236004 0)
(51.0998 0.00683915 0)
(51.1026 0.012882 0)
(51.1036 0.0199894 0)
(51.1027 0.0280415 0)
(51.0992 0.0360289 0)
(51.0929 0.043054 0)
(51.0843 0.0478455 0)
(51.0743 0.0496028 0)
(51.0642 0.0479062 0)
(51.0553 0.0431888 0)
(51.0487 0.0362811 0)
(51.0446 0.0283105 0)
(51.043 0.0202374 0)
(51.0435 0.0127885 0)
(51.0454 0.00631495 0)
(51.0482 0.000966328 0)
(51.0516 -0.00326732 0)
(51.055 -0.00646016 0)
(51.0584 -0.00882504 0)
(51.0614 -0.0106875 0)
(51.0641 -0.0123171 0)
(51.0669 -0.0137754 0)
(51.0699 -0.0147506 0)
(51.0732 -0.0149866 0)
(51.0759 -0.0137532 0)
(51.0783 -0.0137094 0)
(51.0789 -0.0101089 0)
(51.0613 -0.0103303 0)
(51.0666 -0.00329865 0)
(51.0712 -0.00463929 0)
(51.0778 -0.0062035 0)
(51.0831 -0.00449012 0)
(51.0881 -0.00304195 0)
(51.0924 -0.00142401 0)
(51.0969 0.00177197 0)
(51.1008 0.0060881 0)
(51.104 0.0120486 0)
(51.1058 0.0192465 0)
(51.1057 0.0276788 0)
(51.103 0.0364527 0)
(51.0973 0.0447016 0)
(51.0889 0.0510631 0)
(51.0785 0.0545086 0)
(51.0674 0.0542919 0)
(51.0571 0.0505526 0)
(51.0487 0.0439839 0)
(51.043 0.0357497 0)
(51.0402 0.0269661 0)
(51.0397 0.0185694 0)
(51.0411 0.0110894 0)
(51.0437 0.00477233 0)
(51.0471 -0.000359889 0)
(51.0507 -0.00434751 0)
(51.0544 -0.00730403 0)
(51.0579 -0.00945477 0)
(51.0609 -0.0111694 0)
(51.0636 -0.0127065 0)
(51.0664 -0.0141282 0)
(51.0694 -0.0150671 0)
(51.0727 -0.0152578 0)
(51.0754 -0.013893 0)
(51.0778 -0.0138792 0)
(51.0784 -0.0100124 0)
(51.0612 -0.00909087 0)
(51.0668 -0.00424133 0)
(51.0712 -0.00443272 0)
(51.0778 -0.00493192 0)
(51.0833 -0.00411871 0)
(51.0882 -0.00316389 0)
(51.0927 -0.00176604 0)
(51.0974 0.00122559 0)
(51.1017 0.00536892 0)
(51.1054 0.011212 0)
(51.1079 0.0184247 0)
(51.1086 0.0271143 0)
(51.1067 0.036531 0)
(51.1019 0.0458891 0)
(51.0939 0.0537893 0)
(51.0834 0.0590278 0)
(51.0714 0.0605422 0)
(51.0597 0.0581204 0)
(51.0496 0.0522257 0)
(51.0421 0.0439807 0)
(51.0377 0.0346177 0)
(51.0361 0.0252836 0)
(51.0368 0.0167293 0)
(51.039 0.00935483 0)
(51.0423 0.00324883 0)
(51.046 -0.00163057 0)
(51.05 -0.00537299 0)
(51.0538 -0.00808824 0)
(51.0574 -0.0100365 0)
(51.0604 -0.0116041 0)
(51.0631 -0.0130619 0)
(51.0659 -0.0144477 0)
(51.0689 -0.0153609 0)
(51.0722 -0.0155064 0)
(51.0749 -0.0140207 0)
(51.0774 -0.0140376 0)
(51.078 -0.00991405 0)
(51.0611 -0.00713978 0)
(51.0669 -0.00476986 0)
(51.0713 -0.00454658 0)
(51.0778 -0.00371147 0)
(51.0834 -0.00392572 0)
(51.0883 -0.00333473 0)
(51.0929 -0.00209248 0)
(51.0979 0.000717934 0)
(51.1025 0.00468047 0)
(51.1067 0.0103787 0)
(51.1097 0.0175478 0)
(51.1113 0.0263903 0)
(51.1104 0.0363094 0)
(51.1064 0.0466379 0)
(51.0991 0.0559979 0)
(51.0887 0.0630712 0)
(51.0762 0.0665165 0)
(51.0632 0.0657418 0)
(51.0513 0.060892 0)
(51.0419 0.0529534 0)
(51.0357 0.0432127 0)
(51.0327 0.0330085 0)
(51.0324 0.0233344 0)
(51.0341 0.0147976 0)
(51.0372 0.00761609 0)
(51.0409 0.00177599 0)
(51.0451 -0.00284421 0)
(51.0493 -0.00633467 0)
(51.0533 -0.00881901 0)
(51.0569 -0.0105666 0)
(51.0599 -0.012001 0)
(51.0626 -0.0133808 0)
(51.0653 -0.0147407 0)
(51.0683 -0.0156274 0)
(51.0717 -0.0157397 0)
(51.0744 -0.014135 0)
(51.0771 -0.0141872 0)
(51.0776 -0.00981156 0)
(51.0611 -0.00490808 0)
(51.067 -0.00486757 0)
(51.0714 -0.00503201 0)
(51.0778 -0.00292333 0)
(51.0835 -0.00399883 0)
(51.0883 -0.0035832 0)
(51.0931 -0.00241428 0)
(51.0983 0.000244811 0)
(51.1032 0.00402246 0)
(51.1078 0.00955181 0)
(51.1115 0.016631 0)
(51.1138 0.0255398 0)
(51.1138 0.0358316 0)
(51.1109 0.0469813 0)
(51.1045 0.0576847 0)
(51.0945 0.066574 0)
(51.0817 0.072087 0)
(51.0677 0.0732563 0)
(51.0541 0.0698393 0)
(51.0426 0.0625809 0)
(51.0344 0.052739 0)
(51.0296 0.0418014 0)
(51.0281 0.0310101 0)
(51.0291 0.0212143 0)
(51.0318 0.0128217 0)
(51.0355 0.00591504 0)
(51.0397 0.000361979 0)
(51.0442 -0.0039872 0)
(51.0486 -0.00723703 0)
(51.0527 -0.00949375 0)
(51.0563 -0.0110531 0)
(51.0594 -0.0123572 0)
(51.0621 -0.0136703 0)
(51.0647 -0.0150042 0)
(51.0677 -0.0158751 0)
(51.0711 -0.0159557 0)
(51.074 -0.0142401 0)
(51.0768 -0.0143241 0)
(51.0773 -0.00971065 0)
(51.061 -0.0029349 0)
(51.067 -0.00467488 0)
(51.0715 -0.0058382 0)
(51.0778 -0.00280018 0)
(51.0834 -0.00438607 0)
(51.0884 -0.00393993 0)
(51.0933 -0.00275282 0)
(51.0986 -0.000204743 0)
(51.1038 0.00339437 0)
(51.1088 0.00873611 0)
(51.113 0.0156866 0)
(51.1162 0.0245902 0)
(51.1172 0.0351379 0)
(51.1153 0.0469563 0)
(51.1099 0.0588611 0)
(51.1006 0.0694947 0)
(51.0879 0.0771449 0)
(51.0731 0.0805035 0)
(51.0579 0.078901 0)
(51.0444 0.0727401 0)
(51.0339 0.0631467 0)
(51.0271 0.0516911 0)
(51.024 0.0398487 0)
(51.0239 0.0287362 0)
(51.0261 0.0189896 0)
(51.0297 0.0108572 0)
(51.034 0.00426896 0)
(51.0387 -0.000975073 0)
(51.0433 -0.00506265 0)
(51.0479 -0.00807701 0)
(51.0521 -0.0101184 0)
(51.0558 -0.0114944 0)
(51.0589 -0.0126812 0)
(51.0615 -0.0139281 0)
(51.0641 -0.0152453 0)
(51.0671 -0.0161008 0)
(51.0707 -0.0161589 0)
(51.0737 -0.0143327 0)
(51.0767 -0.0144528 0)
(51.0772 -0.00960668 0)
(51.061 -0.00171738 0)
(51.0669 -0.00443203 0)
(51.0715 -0.00679903 0)
(51.0778 -0.00334876 0)
(51.0833 -0.00507135 0)
(51.0884 -0.00442047 0)
(51.0934 -0.00313597 0)
(51.0989 -0.000651576 0)
(51.1043 0.00279023 0)
(51.1097 0.00793568 0)
(51.1145 0.0147272 0)
(51.1183 0.0235661 0)
(51.1203 0.0342663 0)
(51.1196 0.0466046 0)
(51.1153 0.0595522 0)
(51.1069 0.0718147 0)
(51.0946 0.0816036 0)
(51.0793 0.0873316 0)
(51.0628 0.0878957 0)
(51.0473 0.0832731 0)
(51.0343 0.0743455 0)
(51.0252 0.0626711 0)
(51.0202 0.0499187 0)
(51.0188 0.0374867 0)
(51.0202 0.0262734 0)
(51.0235 0.016732 0)
(51.0279 0.00893273 0)
(51.0327 0.00270207 0)
(51.0376 -0.00223455 0)
(51.0425 -0.00606514 0)
(51.0472 -0.00885955 0)
(51.0516 -0.0106926 0)
(51.0553 -0.0118985 0)
(51.0583 -0.0129704 0)
(51.0609 -0.0141607 0)
(51.0635 -0.0154616 0)
(51.0666 -0.01631 0)
(51.0703 -0.0163459 0)
(51.0735 -0.0144183 0)
(51.0767 -0.0145725 0)
(51.0774 -0.00951622 0)
(51.0609 -0.00159815 0)
(51.0667 -0.00436675 0)
(51.0715 -0.00767202 0)
(51.0778 -0.0043514 0)
(51.0832 -0.005963 0)
(51.0884 -0.00501014 0)
(51.0935 -0.00358489 0)
(51.0992 -0.00112259 0)
(51.1048 0.00219652 0)
(51.1105 0.00715157 0)
(51.1157 0.0137641 0)
(51.1203 0.0224912 0)
(51.1232 0.0332536 0)
(51.1236 0.0459704 0)
(51.1205 0.0597931 0)
(51.1133 0.073536 0)
(51.1017 0.0854037 0)
(51.0863 0.0936058 0)
(51.0688 0.0966382 0)
(51.0513 0.0939948 0)
(51.036 0.0862019 0)
(51.0243 0.0746938 0)
(51.017 0.0612582 0)
(51.0138 0.0475703 0)
(51.0141 0.0348242 0)
(51.0168 0.0237131 0)
(51.0212 0.0144851 0)
(51.0262 0.00708144 0)
(51.0315 0.00122073 0)
(51.0367 -0.00340881 0)
(51.0417 -0.00700003 0)
(51.0465 -0.00958444 0)
(51.051 -0.0112225 0)
(51.0548 -0.0122641 0)
(51.0578 -0.0132316 0)
(51.0604 -0.0143662 0)
(51.063 -0.0156582 0)
(51.0662 -0.0164992 0)
(51.0701 -0.0165217 0)
(51.0734 -0.0144933 0)
(51.077 -0.0146897 0)
(51.0688 -0.00941521 0)
(51.0608 -0.00264405 0)
(51.0666 -0.00465227 0)
(51.0715 -0.00821063 0)
(51.0778 -0.00543098 0)
(51.0832 -0.00690271 0)
(51.0884 -0.00565415 0)
(51.0937 -0.00410172 0)
(51.0994 -0.0016398 0)
(51.1052 0.00159348 0)
(51.1112 0.00637754 0)
(51.1169 0.0128048 0)
(51.1221 0.0213861 0)
(51.1258 0.0321351 0)
(51.1274 0.0451018 0)
(51.1256 0.05963 0)
(51.1197 0.0746799 0)
(51.109 0.0885129 0)
(51.094 0.0992177 0)
(51.0758 0.104948 0)
(51.0567 0.1047 0)
(51.0389 0.0985439 0)
(51.0245 0.0876647 0)
(51.0145 0.0738679 0)
(51.0092 0.0590669 0)
(51.008 0.0447771 0)
(51.0099 0.0319753 0)
(51.0139 0.0211173 0)
(51.0191 0.0122934 0)
(51.0248 0.00531664 0)
(51.0304 -0.00016412 0)
(51.0358 -0.00450211 0)
(51.0409 -0.00786573 0)
(51.0459 -0.010257 0)
(51.0504 -0.0117083 0)
(51.0542 -0.0125969 0)
(51.0573 -0.0134629 0)
(51.0599 -0.0145511 0)
(51.0626 -0.0158353 0)
(51.066 -0.0166751 0)
(51.07 -0.0166828 0)
(51.0735 -0.0145642 0)
(51.0793 -0.0147808 0)
(50.9953 -0.00891509 0)
(51.0607 -0.00466646 0)
(51.0665 -0.0053505 0)
(51.0714 -0.00822869 0)
(51.0778 -0.00619159 0)
(51.0832 -0.00770111 0)
(51.0885 -0.00626478 0)
(51.0938 -0.00466126 0)
(51.0996 -0.00220992 0)
(51.1056 0.000964106 0)
(51.1118 0.00560208 0)
(51.1179 0.0118496 0)
(51.1237 0.0202656 0)
(51.1283 0.0309421 0)
(51.131 0.0440461 0)
(51.1305 0.0591158 0)
(51.126 0.0752853 0)
(51.1165 0.0909263 0)
(51.1021 0.104089 0)
(51.0837 0.112666 0)
(51.0633 0.115176 0)
(51.0432 0.111165 0)
(51.0259 0.101441 0)
(51.0131 0.0877014 0)
(51.0052 0.072025 0)
(51.0021 0.056248 0)
(51.0028 0.0416786 0)
(51.0062 0.0290248 0)
(51.0113 0.0185459 0)
(51.0173 0.0101803 0)
(51.0235 0.00365565 0)
(51.0293 -0.00145404 0)
(51.0349 -0.00551224 0)
(51.0402 -0.00866861 0)
(51.0452 -0.0108782 0)
(51.0499 -0.0121542 0)
(51.0538 -0.0128958 0)
(51.0568 -0.0136706 0)
(51.0595 -0.0147153 0)
(51.0624 -0.015997 0)
(51.0658 -0.0168324 0)
(51.0701 -0.0168364 0)
(51.0738 -0.0146413 0)
(51.0624 -0.0145584 0)
(50.8183 -0.00771407 0)
(51.0606 -0.00717241 0)
(51.0664 -0.00640242 0)
(51.0714 -0.00767731 0)
(51.0778 -0.0063065 0)
(51.0831 -0.00819072 0)
(51.0885 -0.00674411 0)
(51.0939 -0.00521341 0)
(51.0998 -0.00281711 0)
(51.1059 0.000301931 0)
(51.1124 0.00481367 0)
(51.1189 0.0108932 0)
(51.1252 0.0191368 0)
(51.1306 0.029699 0)
(51.1343 0.0428486 0)
(51.1351 0.0583078 0)
(51.1321 0.0754045 0)
(51.124 0.0926653 0)
(51.1106 0.108177 0)
(51.0924 0.119661 0)
(51.071 0.125218 0)
(51.0489 0.123835 0)
(51.0288 0.115835 0)
(51.0128 0.102661 0)
(51.002 0.0864512 0)
(50.9965 0.0693296 0)
(50.9956 0.0529677 0)
(50.9981 0.0383868 0)
(51.0029 0.0260527 0)
(51.009 0.0160354 0)
(51.0157 0.00817119 0)
(51.0223 0.00210025 0)
(51.0284 -0.00264591 0)
(51.034 -0.00644571 0)
(51.0394 -0.0094093 0)
(51.0446 -0.0114518 0)
(51.0494 -0.0125601 0)
(51.0533 -0.0131664 0)
(51.0565 -0.0138558 0)
(51.0593 -0.0148641 0)
(51.0623 -0.0161394 0)
(51.0659 -0.0169773 0)
(51.0707 -0.0169795 0)
(51.0674 -0.0147525 0)
(50.9422 -0.0132956 0)
(50.5773 -0.00629095 0)
(51.0605 -0.00964215 0)
(51.0665 -0.00760173 0)
(51.0714 -0.0066446 0)
(51.0778 -0.00563178 0)
(51.0832 -0.00826253 0)
(51.0886 -0.00701633 0)
(51.094 -0.00569657 0)
(51.1 -0.00342349 0)
(51.1062 -0.0003817 0)
(51.1129 0.00400872 0)
(51.1197 0.00992953 0)
(51.1265 0.0179998 0)
(51.1326 0.0284211 0)
(51.1373 0.0415461 0)
(51.1395 0.0572615 0)
(51.1379 0.0750984 0)
(51.1314 0.0937718 0)
(51.1193 0.11147 0)
(51.1017 0.125838 0)
(51.0798 0.13464 0)
(51.056 0.136315 0)
(51.0332 0.130615 0)
(51.0139 0.118593 0)
(50.9999 0.102301 0)
(50.9916 0.0840806 0)
(50.9886 0.0659725 0)
(50.9898 0.0493684 0)
(50.994 0.0350067 0)
(51 0.0231129 0)
(51.007 0.013622 0)
(51.0142 0.00627384 0)
(51.0211 0.000657204 0)
(51.0274 -0.00374524 0)
(51.0332 -0.00730374 0)
(51.0387 -0.0100933 0)
(51.0441 -0.0119787 0)
(51.049 -0.0129303 0)
(51.053 -0.0134108 0)
(51.0563 -0.0140234 0)
(51.0593 -0.014993 0)
(51.0624 -0.0162669 0)
(51.0662 -0.0171054 0)
(51.0711 -0.0171583 0)
(50.9913 -0.0143714 0)
(50.7277 -0.0112925 0)
(50.3008 -0.00491054 0)
(51.0604 -0.0114981 0)
(51.0665 -0.00871545 0)
(51.0715 -0.00538221 0)
(51.0778 -0.00422888 0)
(51.0831 -0.00790792 0)
(51.0886 -0.00704665 0)
(51.0941 -0.0060577 0)
(51.1001 -0.00397911 0)
(51.1064 -0.00105763 0)
(51.1133 0.00319681 0)
(51.1204 0.00895803 0)
(51.1277 0.016853 0)
(51.1345 0.0271158 0)
(51.1402 0.0401658 0)
(51.1436 0.0560264 0)
(51.1435 0.0744297 0)
(51.1387 0.0943026 0)
(51.1281 0.113987 0)
(51.1114 0.131139 0)
(51.0895 0.143288 0)
(51.0645 0.148373 0)
(51.0392 0.14553 0)
(51.0166 0.135291 0)
(50.999 0.119473 0)
(50.9875 0.100515 0)
(50.9819 0.0807997 0)
(50.9813 0.0621284 0)
(50.9846 0.0455855 0)
(50.9903 0.0316147 0)
(50.9975 0.0202552 0)
(51.0052 0.0113216 0)
(51.0129 0.00449978 0)
(51.0201 -0.000678116 0)
(51.0265 -0.00475403 0)
(51.0324 -0.00809309 0)
(51.0381 -0.0107218 0)
(51.0436 -0.0124618 0)
(51.0486 -0.0132663 0)
(51.0528 -0.0136341 0)
(51.0563 -0.0141715 0)
(51.0594 -0.0151084 0)
(51.0628 -0.0163775 0)
(51.0671 -0.0172598 0)
(51.0351 -0.0171302 0)
(50.8027 -0.0129954 0)
(50.4611 -0.00925271 0)
(50.0084 -0.00364455 0)
(51.0603 -0.0120813 0)
(51.0667 -0.00944863 0)
(51.0716 -0.00415887 0)
(51.0778 -0.00242568 0)
(51.0831 -0.00721253 0)
(51.0887 -0.00686163 0)
(51.0942 -0.00626585 0)
(51.1003 -0.00443769 0)
(51.1067 -0.00168569 0)
(51.1137 0.00240248 0)
(51.1211 0.00798891 0)
(51.1288 0.0156985 0)
(51.1362 0.0257872 0)
(51.1427 0.0387251 0)
(51.1473 0.0546417 0)
(51.1488 0.0734571 0)
(51.1457 0.094321 0)
(51.1368 0.11577 0)
(51.1214 0.135545 0)
(51.1 0.151046 0)
(51.0743 0.159797 0)
(51.0469 0.160313 0)
(51.0211 0.152508 0)
(50.9997 0.137802 0)
(50.9844 0.11859 0)
(50.9758 0.0975199 0)
(50.973 0.0768137 0)
(50.9749 0.057967 0)
(50.9799 0.0417234 0)
(50.987 0.0282791 0)
(50.9952 0.0175075 0)
(51.0036 0.00915255 0)
(51.0117 0.00284744 0)
(51.0191 -0.00190621 0)
(51.0257 -0.00567954 0)
(51.0318 -0.00881604 0)
(51.0376 -0.0112984 0)
(51.0432 -0.0129027 0)
(51.0484 -0.0135735 0)
(51.0528 -0.0138358 0)
(51.0565 -0.0143044 0)
(51.0598 -0.0152049 0)
(51.0637 -0.016486 0)
(51.0553 -0.0174094 0)
(50.8844 -0.0160972 0)
(50.5484 -0.0113626 0)
(50.1671 -0.00733121 0)
(49.7134 -0.00254137 0)
(51.0602 -0.0114265 0)
(51.0668 -0.00941197 0)
(51.0717 -0.00326982 0)
(51.0777 -0.00060767 0)
(51.0831 -0.0063618 0)
(51.0887 -0.00653684 0)
(51.0942 -0.00632579 0)
(51.1004 -0.00476863 0)
(51.1069 -0.00222797 0)
(51.1141 0.00165942 0)
(51.1217 0.00704426 0)
(51.1298 0.0145475 0)
(51.1377 0.0244416 0)
(51.1451 0.0372363 0)
(51.1508 0.053138 0)
(51.1538 0.0722319 0)
(51.1524 0.0938908 0)
(51.1453 0.116874 0)
(51.1316 0.139066 0)
(51.1111 0.157839 0)
(51.0851 0.170407 0)
(51.0561 0.174703 0)
(51.0273 0.169968 0)
(51.0021 0.157073 0)
(50.9828 0.138202 0)
(50.9705 0.116155 0)
(50.9649 0.0935472 0)
(50.965 0.07233 0)
(50.9691 0.0536273 0)
(50.9759 0.0378745 0)
(50.9842 0.0250427 0)
(50.9932 0.0148959 0)
(51.0022 0.00711779 0)
(51.0106 0.00131882 0)
(51.0182 -0.00303528 0)
(51.025 -0.00652588 0)
(51.0312 -0.00947734 0)
(51.0372 -0.0118245 0)
(51.043 -0.0133059 0)
(51.0484 -0.0138527 0)
(51.0531 -0.0140208 0)
(51.057 -0.0144181 0)
(51.0607 -0.0152953 0)
(51.0621 -0.0166208 0)
(50.9518 -0.0168388 0)
(50.6469 -0.014412 0)
(50.258 -0.00976525 0)
(49.8634 -0.00562988 0)
(49.4245 -0.00161297 0)
(51.0601 -0.00937099 0)
(51.0669 -0.00857879 0)
(51.0719 -0.00302453 0)
(51.0777 0.000740934 0)
(51.083 -0.00554578 0)
(51.0887 -0.00618903 0)
(51.0943 -0.00627304 0)
(51.1005 -0.00496916 0)
(51.1071 -0.00265861 0)
(51.1144 0.00100029 0)
(51.1222 0.00615428 0)
(51.1306 0.0134211 0)
(51.1391 0.0230924 0)
(51.1472 0.0357117 0)
(51.154 0.0515383 0)
(51.1584 0.0707973 0)
(51.1588 0.0930721 0)
(51.1536 0.117359 0)
(51.1418 0.141734 0)
(51.1226 0.163629 0)
(51.0969 0.18006 0)
(51.0667 0.18846 0)
(51.0353 0.187378 0)
(51.0064 0.177023 0)
(50.9828 0.159185 0)
(50.9664 0.136667 0)
(50.9575 0.112412 0)
(50.9551 0.0888408 0)
(50.9578 0.0675267 0)
(50.964 0.0492315 0)
(50.9723 0.0341017 0)
(50.9817 0.0219434 0)
(50.9914 0.0124309 0)
(51.0008 0.0052232 0)
(51.0096 -9.34367e-05 0)
(51.0174 -0.00406922 0)
(51.0244 -0.00729902 0)
(51.0308 -0.0100792 0)
(51.0369 -0.0123047 0)
(51.043 -0.0136741 0)
(51.0486 -0.0141098 0)
(51.0535 -0.0141847 0)
(51.0577 -0.0145261 0)
(51.0618 -0.0153851 0)
(51.0052 -0.0163485 0)
(50.7369 -0.0152218 0)
(50.3624 -0.0127022 0)
(49.9523 -0.00829937 0)
(49.5615 -0.00418491 0)
(49.1475 -0.000852692 0)
(51.0601 -0.00625318 0)
(51.067 -0.00683932 0)
(51.072 -0.00337254 0)
(51.0777 0.00102477 0)