/*--------------------------------*- C++ -*----------------------------------*\
  =========                 |
  \\      /  F ield         | OpenFOAM: The Open Source CFD Toolbox
   \\    /   O peration     | Website:  https://openfoam.org
    \\  /    A nd           | Version:  dev
     \\/     M anipulation  |
\*---------------------------------------------------------------------------*/
FoamFile
{
    version     2.0;
    format      ascii;
    class       volScalarField;
    location    "375";
    object      yPlus;
}
// * * * * * * * * * * * * * * * * * * * * * * * * * * * * * * * * * * * * * //

dimensions      [0 0 0 0 0 0 0];

internalField   uniform 0;

boundaryField
{
    inlet-l
    {
        type            calculated;
        value           uniform 0;
    }
    airfoil-l1
    {
        type            calculated;
        value           nonuniform List<scalar> 
71
(
191.514
214.779
249.871
283.684
310.26
327.664
337.979
343.157
344.69
343.712
340.913
337.051
331.692
325.275
318.198
310.728
303.037
295.229
287.361
279.514
271.749
264.087
256.557
249.19
242.011
235.046
228.316
221.834
215.648
209.787
204.286
199.187
194.536
190.372
186.755
183.717
181.282
179.439
178.147
177.36
176.96
176.867
177.043
177.342
177.755
178.125
178.496
178.746
178.873
178.832
178.637
178.2
177.495
176.591
175.447
174.031
172.429
170.585
168.574
166.364
164.04
161.574
159.013
156.383
153.689
150.982
148.263
145.58
142.915
140.409
137.779
)
;
    }
    empty-1
    {
        type            empty;
    }
    empty-2
    {
        type            empty;
    }
    wall-l1
    {
        type            calculated;
        value           nonuniform List<scalar> 
104
(
32.0777
25.1716
9.89216
10.6626
17.0921
14.0084
12.4719
11.2142
8.78519
11.9646
14.0435
12.8523
13.2786
13.5541
13.6135
13.0023
12.4865
12.7798
12.6994
12.8801
12.9531
12.8129
12.9785
13.0175
13.1013
13.254
13.316
13.3786
13.3882
13.3768
13.4036
13.4705
13.6094
13.7888
13.9798
14.1513
14.2618
14.309
14.2803
14.1722
13.9929
13.755
13.502
13.2834
13.1329
13.0555
13.0266
13.0217
13.0268
13.0339
13.0453
13.061
13.0819
13.1139
13.1517
13.1964
13.2427
13.2888
13.3404
13.4137
13.536
13.7373
14.026
14.3614
14.652
14.7969
14.7364
14.478
14.1015
13.7327
13.4803
13.3724
13.385
13.5371
13.9093
14.5067
15.1499
15.5821
15.6339
15.3068
14.7686
14.2607
13.9444
13.8326
13.8556
13.9109
13.8883
13.7524
13.5874
13.4966
13.4924
13.6162
14.0395
14.7843
15.4936
15.7329
15.3133
14.4369
13.703
13.5928
13.7649
13.7049
13.5694
14.2525
)
;
    }
    airfoil-l2
    {
        type            calculated;
        value           nonuniform List<scalar> 
104
(
137.426
139.796
141.644
142.977
143.944
144.629
145.091
145.373
145.522
145.569
145.495
145.321
145.08
144.794
144.472
144.119
143.738
143.355
142.95
142.531
142.108
141.681
141.249
140.805
140.359
139.912
139.461
139.007
138.551
138.09
137.622
137.164
136.712
136.249
135.781
135.318
134.856
134.396
133.936
133.472
133.006
132.54
132.073
131.608
131.146
130.682
130.216
129.748
129.282
128.816
128.347
127.875
127.404
126.935
126.462
125.988
125.507
125.028
124.548
124.065
123.575
123.085
122.596
122.095
121.593
121.085
120.571
120.05
119.527
119.003
118.47
117.922
117.369
116.811
116.231
115.655
115.067
114.458
113.839
113.205
112.554
111.878
111.195
110.484
109.745
108.983
108.195
107.369
106.495
105.592
104.642
103.635
102.565
101.424
100.199
98.874
97.429
95.8411
94.0755
92.0586
89.7458
86.8582
83.5878
77.2964
)
;
    }
    empty-3
    {
        type            empty;
    }
    empty-4
    {
        type            empty;
    }
    wall-l2
    {
        type            calculated;
        value           nonuniform List<scalar> 
51
(
15.5288
17.2153
18.422
18.8111
18.5343
17.5425
16.2664
15.1825
14.5641
14.3913
14.4727
14.7847
15.5144
16.5629
17.5823
18.2699
18.4699
18.1935
17.5634
16.7739
16.0389
15.5127
15.2586
15.2418
15.4007
15.6959
16.1028
16.5735
16.9978
17.2262
17.1569
16.8234
16.4346
16.257
16.3545
16.5333
16.6256
16.6384
16.6874
16.7664
16.7264
16.4648
16.0664
15.7528
15.6773
15.8006
16.025
16.3149
16.6384
16.9717
16.7479
)
;
    }
    outlet-l
    {
        type            calculated;
        value           uniform 0;
    }
    empty-5
    {
        type            empty;
    }
    empty-6
    {
        type            empty;
    }
    outlet-h
    {
        type            calculated;
        value           uniform 0;
    }
    wall-h2
    {
        type            calculated;
        value           nonuniform List<scalar> 
51
(
14.6739
14.8157
14.9256
14.9823
14.9887
14.9519
14.9096
14.8865
14.8982
14.9525
15.0444
15.166
15.3034
15.4422
15.566
15.66
15.7158
15.7336
15.725
15.7105
15.7108
15.7391
15.7949
15.8654
15.9323
15.9814
16.0097
16.0255
16.042
16.0682
16.1033
16.1381
16.1635
16.1795
16.1954
16.2231
16.2656
16.312
16.3394
16.3244
16.2565
16.149
16.0352
15.9543
15.9288
15.9521
15.9884
15.998
15.958
15.8821
15.8104
)
;
    }
    empty-7
    {
        type            empty;
    }
    empty-8
    {
        type            empty;
    }
    airfoil-h2
    {
        type            calculated;
        value           nonuniform List<scalar> 
104
(
136.081
138.415
140.248
141.581
142.556
143.263
143.751
144.069
144.254
144.345
144.337
144.237
144.068
143.845
143.578
143.284
142.961
142.631
142.276
141.916
141.545
141.163
140.774
140.381
139.981
139.566
139.157
138.742
138.318
137.898
137.47
137.036
136.599
136.172
135.739
135.299
134.853
134.405
133.962
133.512
133.067
132.614
132.161
131.706
131.253
130.799
130.34
129.878
129.416
128.948
128.489
128.014
127.544
127.077
126.603
126.127
125.653
125.173
124.684
124.202
123.708
123.222
122.721
122.22
121.715
121.209
120.696
120.175
119.65
119.12
118.575
118.032
117.478
116.915
116.345
115.76
115.171
114.561
113.942
113.306
112.649
111.982
111.295
110.579
109.844
109.087
108.294
107.468
106.603
105.695
104.739
103.726
102.648
101.504
100.275
98.9474
97.4972
95.8963
94.109
92.0739
89.7469
86.8465
83.5685
77.2363
)
;
    }
    wall-h1
    {
        type            calculated;
        value           nonuniform List<scalar> 
104
(
11.4629
12.2501
13.0059
13.4812
13.3002
13.072
13.2542
13.3113
13.2888
13.2476
13.2164
13.2564
13.2592
13.2567
13.2519
13.2472
13.261
13.2655
13.2699
13.2772
13.2791
13.2843
13.2909
13.2992
13.3101
13.3243
13.3408
13.3578
13.3748
13.389
13.402
13.4154
13.431
13.4512
13.4751
13.4995
13.5195
13.5311
13.5339
13.5321
13.5319
13.5358
13.5468
13.5619
13.5798
13.5958
13.6091
13.6206
13.6324
13.6471
13.6645
13.6837
13.7011
13.7128
13.7178
13.7187
13.7187
13.7221
13.7307
13.7447
13.7605
13.7755
13.7868
13.7946
13.8006
13.8073
13.8184
13.8344
13.8532
13.8725
13.8896
13.9037
13.9175
13.9366
13.9656
14.007
14.0577
14.1097
14.1514
14.1722
14.1707
14.1569
14.1465
14.1533
14.1863
14.2435
14.3117
14.368
14.3909
14.3764
14.338
14.303
14.2926
14.3185
14.3767
14.4522
14.518
14.5512
14.5442
14.5098
14.475
14.4657
14.4952
14.5881
)
;
    }
    empty-9
    {
        type            empty;
    }
    empty-10
    {
        type            empty;
    }
    inlet-h
    {
        type            calculated;
        value           uniform 0;
    }
    airfoil-h1
    {
        type            calculated;
        value           nonuniform List<scalar> 
71
(
189.656
210.084
244.597
279.153
307.501
326.889
338.954
345.524
348.098
347.846
345.54
341.9
336.826
330.494
323.352
315.711
307.766
299.648
291.416
283.179
274.99
266.879
258.894
251.064
243.399
235.948
228.73
221.783
215.127
208.795
202.839
197.307
192.244
187.696
183.733
180.38
177.673
175.623
174.179
173.277
172.829
172.724
172.895
173.248
173.75
174.224
174.676
175.037
175.291
175.41
175.323
175.063
174.543
173.791
172.783
171.509
170.028
168.324
166.398
164.307
162.055
159.674
157.189
154.628
152.008
149.342
146.697
144.058
141.459
139.019
136.444
)
;
    }
    empty-11
    {
        type            empty;
    }
    empty-12
    {
        type            empty;
    }
}


// ************************************************************************* //
