/*--------------------------------*- C++ -*----------------------------------*\
  =========                 |
  \\      /  F ield         | OpenFOAM: The Open Source CFD Toolbox
   \\    /   O peration     | Website:  https://openfoam.org
    \\  /    A nd           | Version:  dev
     \\/     M anipulation  |
\*---------------------------------------------------------------------------*/
FoamFile
{
    version     2.0;
    format      ascii;
    class       volScalarField;
    location    "150";
    object      nut;
}
// * * * * * * * * * * * * * * * * * * * * * * * * * * * * * * * * * * * * * //

dimensions      [0 2 -1 0 0 0 0];

internalField   nonuniform List<scalar> 
29380
(
9.13004e-06
9.12767e-06
9.12936e-06
9.12744e-06
9.12677e-06
9.11767e-06
9.12711e-06
9.12583e-06
9.11649e-06
9.12294e-06
9.12645e-06
9.12475e-06
9.11601e-06
9.12118e-06
9.11266e-06
9.12498e-06
9.12364e-06
9.11559e-06
9.12026e-06
9.11265e-06
9.11431e-06
9.12285e-06
9.12228e-06
9.11515e-06
9.11939e-06
9.11285e-06
9.11375e-06
9.10985e-06
9.1206e-06
9.12072e-06
9.11466e-06
9.11865e-06
9.11285e-06
9.11356e-06
9.11018e-06
9.10916e-06
9.1189e-06
9.11916e-06
9.11426e-06
9.11792e-06
9.11265e-06
9.1135e-06
9.11031e-06
9.10942e-06
9.10735e-06
9.11814e-06
9.11786e-06
9.11414e-06
9.11722e-06
9.11234e-06
9.11353e-06
9.1103e-06
9.10957e-06
9.10783e-06
9.10768e-06
9.11835e-06
9.117e-06
9.11434e-06
9.11665e-06
9.11206e-06
9.11352e-06
9.1102e-06
9.10983e-06
9.10813e-06
9.10757e-06
9.10905e-06
9.11919e-06
9.1166e-06
9.11467e-06
9.11631e-06
9.1119e-06
9.11337e-06
9.11016e-06
9.11007e-06
9.10834e-06
9.10783e-06
9.10844e-06
9.11055e-06
9.12017e-06
9.11649e-06
9.11482e-06
9.11619e-06
9.11187e-06
9.1131e-06
9.11027e-06
9.11025e-06
9.10855e-06
9.10807e-06
9.10833e-06
9.1097e-06
9.1119e-06
9.12072e-06
9.11645e-06
9.11456e-06
9.11611e-06
9.11185e-06
9.1128e-06
9.11052e-06
9.11032e-06
9.10882e-06
9.10831e-06
9.10829e-06
9.10942e-06
9.11081e-06
9.11352e-06
9.12047e-06
9.11625e-06
9.11394e-06
9.11586e-06
9.11179e-06
9.1126e-06
9.11083e-06
9.11033e-06
9.10918e-06
9.10852e-06
9.10841e-06
9.10909e-06
9.11051e-06
9.11212e-06
9.11529e-06
9.11935e-06
9.11572e-06
9.1132e-06
9.11534e-06
9.11168e-06
9.11253e-06
9.11107e-06
9.11035e-06
9.10955e-06
9.10875e-06
9.10862e-06
9.10892e-06
9.1101e-06
9.11176e-06
9.11347e-06
9.11753e-06
9.11767e-06
9.11489e-06
9.11265e-06
9.11466e-06
9.11165e-06
9.11252e-06
9.11117e-06
9.11049e-06
9.10985e-06
9.10904e-06
9.10884e-06
9.10891e-06
9.10978e-06
9.11126e-06
9.11296e-06
9.11517e-06
9.12032e-06
9.11608e-06
9.11393e-06
9.11253e-06
9.11401e-06
9.11178e-06
9.11249e-06
9.11116e-06
9.11076e-06
9.11003e-06
9.10938e-06
9.10903e-06
9.10904e-06
9.10954e-06
9.11085e-06
9.11233e-06
9.11445e-06
9.11737e-06
9.12359e-06
9.11526e-06
9.11313e-06
9.11284e-06
9.11361e-06
9.11208e-06
9.11241e-06
9.11114e-06
9.1111e-06
9.11012e-06
9.10977e-06
9.10922e-06
9.10925e-06
9.10945e-06
9.11048e-06
9.11184e-06
9.11363e-06
9.11625e-06
9.11964e-06
9.12742e-06
9.11561e-06
9.11273e-06
9.11346e-06
9.11355e-06
9.11242e-06
9.11236e-06
9.11119e-06
9.1114e-06
9.11024e-06
9.11015e-06
9.10948e-06
9.10947e-06
9.10951e-06
9.11018e-06
9.1114e-06
9.11299e-06
9.11502e-06
9.1182e-06
9.12296e-06
9.13209e-06
9.11697e-06
9.11281e-06
9.11416e-06
9.11378e-06
9.11264e-06
9.11242e-06
9.11135e-06
9.11158e-06
9.11046e-06
9.11045e-06
9.10984e-06
9.10966e-06
9.10969e-06
9.11002e-06
9.11105e-06
9.11245e-06
9.11412e-06
9.11685e-06
9.12148e-06
9.12666e-06
9.13779e-06
9.11865e-06
9.11324e-06
9.11471e-06
9.11415e-06
9.11265e-06
9.11263e-06
9.11155e-06
9.11166e-06
9.11081e-06
9.11066e-06
9.11026e-06
9.10987e-06
9.10994e-06
9.11003e-06
9.1108e-06
9.11205e-06
9.11353e-06
9.116e-06
9.1199e-06
9.12489e-06
9.13124e-06
9.14463e-06
9.1198e-06
9.11372e-06
9.11493e-06
9.11449e-06
9.11251e-06
9.11293e-06
9.11172e-06
9.11171e-06
9.11124e-06
9.11081e-06
9.11068e-06
9.11015e-06
9.1102e-06
9.1102e-06
9.11068e-06
9.11178e-06
9.11327e-06
9.11547e-06
9.11869e-06
9.12314e-06
9.12916e-06
9.13684e-06
9.15311e-06
9.11993e-06
9.11393e-06
9.11476e-06
9.11467e-06
9.11237e-06
9.11319e-06
9.11183e-06
9.11183e-06
9.11164e-06
9.11101e-06
9.11105e-06
9.11054e-06
9.11045e-06
9.11048e-06
9.11069e-06
9.11163e-06
9.1132e-06
9.11516e-06
9.11768e-06
9.12192e-06
9.12711e-06
9.13428e-06
9.14392e-06
9.16274e-06
9.11925e-06
9.1138e-06
9.11431e-06
9.11461e-06
9.11235e-06
9.11331e-06
9.11195e-06
9.11204e-06
9.11193e-06
9.11131e-06
9.11132e-06
9.11099e-06
9.11073e-06
9.11079e-06
9.11083e-06
9.11155e-06
9.11311e-06
9.11487e-06
9.11686e-06
9.12081e-06
9.12565e-06
9.13172e-06
9.14034e-06
9.15213e-06
9.17318e-06
9.11856e-06
9.11348e-06
9.11384e-06
9.11436e-06
9.11253e-06
9.1133e-06
9.11216e-06
9.11231e-06
9.11211e-06
9.11174e-06
9.11153e-06
9.11145e-06
9.11107e-06
9.11108e-06
9.11107e-06
9.11149e-06
9.11284e-06
9.1144e-06
9.11614e-06
9.11958e-06
9.12427e-06
9.12973e-06
9.13685e-06
9.14723e-06
9.16158e-06
9.18434e-06
9.11867e-06
9.11327e-06
9.11364e-06
9.11404e-06
9.11289e-06
9.11326e-06
9.11252e-06
9.11256e-06
9.11226e-06
9.11222e-06
9.11175e-06
9.11187e-06
9.1115e-06
9.11135e-06
9.11135e-06
9.11145e-06
9.11239e-06
9.11371e-06
9.11545e-06
9.11812e-06
9.12269e-06
9.12781e-06
9.13421e-06
9.14253e-06
9.15581e-06
9.17157e-06
9.19597e-06
9.11977e-06
9.11339e-06
9.11393e-06
9.11385e-06
9.11337e-06
9.11328e-06
9.11297e-06
9.11276e-06
9.11247e-06
9.11265e-06
9.11207e-06
9.1122e-06
9.11198e-06
9.11166e-06
9.11164e-06
9.11148e-06
9.11192e-06
9.11297e-06
9.11475e-06
9.1166e-06
9.12078e-06
9.12583e-06
9.13187e-06
9.13918e-06
9.15002e-06
9.165e-06
9.1826e-06
9.20778e-06
9.12129e-06
9.11381e-06
9.11471e-06
9.11396e-06
9.11389e-06
9.11343e-06
9.11341e-06
9.11295e-06
9.11279e-06
9.11299e-06
9.11252e-06
9.11247e-06
9.11246e-06
9.11206e-06
9.11194e-06
9.11165e-06
9.11167e-06
9.11246e-06
9.11414e-06
9.11541e-06
9.11875e-06
9.12376e-06
9.12971e-06
9.13666e-06
9.14565e-06
9.1584e-06
9.1754e-06
9.19416e-06
9.21846e-06
9.12244e-06
9.11431e-06
9.11571e-06
9.1144e-06
9.11437e-06
9.11372e-06
9.11374e-06
9.11322e-06
9.11317e-06
9.11325e-06
9.11306e-06
9.11275e-06
9.1129e-06
9.11255e-06
9.1123e-06
9.11203e-06
9.11183e-06
9.11243e-06
9.11379e-06
9.1149e-06
9.11706e-06
9.12173e-06
9.12762e-06
9.13455e-06
9.14233e-06
9.15323e-06
9.16789e-06
9.18637e-06
9.20498e-06
9.22726e-06
9.1229e-06
9.11466e-06
9.11656e-06
9.11505e-06
9.11477e-06
9.11414e-06
9.11395e-06
9.11363e-06
9.11353e-06
9.11351e-06
9.1136e-06
9.11313e-06
9.11327e-06
9.11309e-06
9.11277e-06
9.11262e-06
9.1124e-06
9.11293e-06
9.11386e-06
9.11515e-06
9.1162e-06
9.11996e-06
9.12564e-06
9.13238e-06
9.13975e-06
9.14912e-06
9.16172e-06
9.17807e-06
9.19722e-06
9.21484e-06
9.23322e-06
9.12312e-06
9.11485e-06
9.11695e-06
9.11568e-06
9.11503e-06
9.11464e-06
9.1141e-06
9.11414e-06
9.11383e-06
9.11383e-06
9.11405e-06
9.11364e-06
9.11362e-06
9.11364e-06
9.11335e-06
9.11332e-06
9.11321e-06
9.11371e-06
9.11431e-06
9.11587e-06
9.11634e-06
9.1187e-06
9.12382e-06
9.13e-06
9.13734e-06
9.1459e-06
9.15663e-06
9.17107e-06
9.18888e-06
9.20761e-06
9.22286e-06
9.23468e-06
9.12385e-06
9.11504e-06
9.11691e-06
9.11609e-06
9.11517e-06
9.11516e-06
9.11428e-06
9.11467e-06
9.11411e-06
9.11424e-06
9.11441e-06
9.11425e-06
9.114e-06
9.11414e-06
9.11396e-06
9.114e-06
9.11398e-06
9.1144e-06
9.1149e-06
9.11658e-06
9.11723e-06
9.11817e-06
9.12223e-06
9.12761e-06
9.13476e-06
9.14313e-06
9.15262e-06
9.16516e-06
9.18151e-06
9.19966e-06
9.21614e-06
9.22732e-06
9.23033e-06
9.12525e-06
9.11538e-06
9.11674e-06
9.11622e-06
9.11523e-06
9.11562e-06
9.11456e-06
9.11512e-06
9.11445e-06
9.11468e-06
9.11473e-06
9.11486e-06
9.11448e-06
9.11458e-06
9.11455e-06
9.11455e-06
9.11449e-06
9.1147e-06
9.11529e-06
9.11682e-06
9.11825e-06
9.1184e-06
9.12095e-06
9.12558e-06
9.13206e-06
9.14042e-06
9.14938e-06
9.16039e-06
9.17488e-06
9.19216e-06
9.20874e-06
9.22161e-06
9.22705e-06
9.21937e-06
9.12662e-06
9.11579e-06
9.11688e-06
9.11622e-06
9.11532e-06
9.11594e-06
9.11493e-06
9.11545e-06
9.11495e-06
9.11509e-06
9.11509e-06
9.11539e-06
9.11508e-06
9.11501e-06
9.11508e-06
9.11493e-06
9.11473e-06
9.11459e-06
9.11526e-06
9.11645e-06
9.11875e-06
9.11915e-06
9.12015e-06
9.12416e-06
9.12963e-06
9.13759e-06
9.14651e-06
9.15653e-06
9.16914e-06
9.18497e-06
9.20166e-06
9.21557e-06
9.2233e-06
9.22206e-06
9.20067e-06
9.12697e-06
9.116e-06
9.1175e-06
9.11633e-06
9.11556e-06
9.11611e-06
9.11537e-06
9.11569e-06
9.11557e-06
9.11548e-06
9.11554e-06
9.11582e-06
9.11574e-06
9.11549e-06
9.11555e-06
9.11523e-06
9.11489e-06
9.11436e-06
9.1149e-06
9.11568e-06
9.11837e-06
9.11989e-06
9.11999e-06
9.12335e-06
9.12789e-06
9.13481e-06
9.14368e-06
9.15327e-06
9.16437e-06
9.17847e-06
9.1948e-06
9.20985e-06
9.21957e-06
9.22152e-06
9.21295e-06
9.18236e-06
9.12608e-06
9.11585e-06
9.11836e-06
9.11669e-06
9.11601e-06
9.11622e-06
9.11585e-06
9.11589e-06
9.11621e-06
9.11588e-06
9.11607e-06
9.11621e-06
9.11639e-06
9.11606e-06
9.11601e-06
9.11561e-06
9.11524e-06
9.11443e-06
9.11457e-06
9.11496e-06
9.11727e-06
9.12009e-06
9.12041e-06
9.12293e-06
9.12692e-06
9.13243e-06
9.14081e-06
9.15028e-06
9.16052e-06
9.173e-06
9.18838e-06
9.20414e-06
9.21587e-06
9.22086e-06
9.21609e-06
9.19381e-06
9.19421e-06
9.12502e-06
9.11548e-06
9.11897e-06
9.11719e-06
9.11664e-06
9.11636e-06
9.11637e-06
9.11612e-06
9.11672e-06
9.11636e-06
9.11661e-06
9.11666e-06
9.11698e-06
9.11674e-06
9.11653e-06
9.1162e-06
9.11595e-06
9.11511e-06
9.11471e-06
9.11478e-06
9.11606e-06
9.11945e-06
9.12106e-06
9.12267e-06
9.12638e-06
9.13076e-06
9.13811e-06
9.14734e-06
9.15736e-06
9.16877e-06
9.18264e-06
9.19829e-06
9.21176e-06
9.21938e-06
9.21821e-06
9.20244e-06
9.1819e-06
9.24932e-06
9.12552e-06
9.11539e-06
9.11908e-06
9.11759e-06
9.11727e-06
9.11662e-06
9.1169e-06
9.11644e-06
9.11704e-06
9.11692e-06
9.11709e-06
9.11721e-06
9.1175e-06
9.11748e-06
9.1172e-06
9.11702e-06
9.11696e-06
9.1164e-06
9.11556e-06
9.11537e-06
9.11549e-06
9.11827e-06
9.12141e-06
9.12244e-06
9.12584e-06
9.12975e-06
9.13594e-06
9.14449e-06
9.15452e-06
9.16553e-06
9.17786e-06
9.1924e-06
9.20687e-06
9.21706e-06
9.21921e-06
9.20987e-06
9.1868e-06
9.20675e-06
9.32258e-06
9.12862e-06
9.11606e-06
9.11893e-06
9.11769e-06
9.11766e-06
9.11698e-06
9.1174e-06
9.1169e-06
9.11725e-06
9.11751e-06
9.11751e-06
9.11782e-06
9.11801e-06
9.11822e-06
9.118e-06
9.11797e-06
9.11807e-06
9.11796e-06
9.11696e-06
9.11662e-06
9.11598e-06
9.11727e-06
9.12113e-06
9.12227e-06
9.1251e-06
9.12907e-06
9.13441e-06
9.142e-06
9.15178e-06
9.16277e-06
9.17411e-06
9.18701e-06
9.20131e-06
9.21359e-06
9.2199e-06
9.21604e-06
9.19471e-06
9.19159e-06
9.2679e-06
9.37205e-06
9.13358e-06
9.11761e-06
9.11919e-06
9.11763e-06
9.11764e-06
9.11732e-06
9.11776e-06
9.11747e-06
9.11748e-06
9.11807e-06
9.11792e-06
9.11838e-06
9.11856e-06
9.11891e-06
9.11888e-06
9.11893e-06
9.11903e-06
9.11932e-06
9.11852e-06
9.11812e-06
9.11741e-06
9.11719e-06
9.12036e-06
9.12224e-06
9.12439e-06
9.12841e-06
9.13334e-06
9.1401e-06
9.14917e-06
9.16001e-06
9.17113e-06
9.18275e-06
9.19587e-06
9.20907e-06
9.21935e-06
9.22093e-06
9.20746e-06
9.18324e-06
9.23463e-06
9.32207e-06
9.37208e-06
9.13812e-06
9.11975e-06
9.12041e-06
9.11784e-06
9.11736e-06
9.11751e-06
9.11785e-06
9.11806e-06
9.11783e-06
9.11856e-06
9.11842e-06
9.11884e-06
9.11914e-06
9.11952e-06
9.11974e-06
9.11982e-06
9.11974e-06
9.12016e-06
9.11982e-06
9.11942e-06
9.11917e-06
9.1183e-06
9.11973e-06
9.12237e-06
9.12413e-06
9.12774e-06
9.13235e-06
9.13871e-06
9.14692e-06
9.15719e-06
9.16852e-06
9.17978e-06
9.19147e-06
9.2041e-06
9.21658e-06
9.22379e-06
9.21808e-06
9.18728e-06
9.20449e-06
9.2854e-06
9.33608e-06
9.28618e-06
9.13985e-06
9.12193e-06
9.12256e-06
9.11879e-06
9.1173e-06
9.11755e-06
9.11762e-06
9.11846e-06
9.11825e-06
9.11899e-06
9.11906e-06
9.11924e-06
9.11972e-06
9.12006e-06
9.12047e-06
9.12061e-06
9.12031e-06
9.12056e-06
9.1207e-06
9.12028e-06
9.12056e-06
9.12016e-06
9.11988e-06
9.12267e-06
9.12451e-06
9.12734e-06
9.13132e-06
9.1375e-06
9.14508e-06
9.15456e-06
9.16597e-06
9.17766e-06
9.18851e-06
9.19961e-06
9.21176e-06
9.22304e-06
9.22334e-06
9.19995e-06
9.18733e-06
9.24759e-06
9.29868e-06
9.28215e-06
9.25841e-06
9.13809e-06
9.12352e-06
9.12497e-06
9.12067e-06
9.11807e-06
9.11768e-06
9.11722e-06
9.1185e-06
9.11857e-06
9.11931e-06
9.11978e-06
9.11971e-06
9.12025e-06
9.12057e-06
9.12105e-06
9.12133e-06
9.12095e-06
9.12085e-06
9.12126e-06
9.12083e-06
9.12123e-06
9.12188e-06
9.121e-06
9.12315e-06
9.12531e-06
9.12751e-06
9.13049e-06
9.13617e-06
9.14345e-06
9.15232e-06
9.16347e-06
9.17573e-06
9.18672e-06
9.19638e-06
9.2064e-06
9.21868e-06
9.22471e-06
9.21486e-06
9.18402e-06
9.21605e-06
9.26486e-06
9.26159e-06
9.20799e-06
9.7341e-06
9.13432e-06
9.12367e-06
9.12669e-06
9.12313e-06
9.12013e-06
9.1184e-06
9.11712e-06
9.11819e-06
9.11861e-06
9.11942e-06
9.1204e-06
9.12034e-06
9.12076e-06
9.12113e-06
9.12155e-06
9.122e-06
9.12182e-06
9.1214e-06
9.12176e-06
9.1214e-06
9.1214e-06
9.12274e-06
9.12265e-06
9.1238e-06
9.12612e-06
9.12821e-06
9.13036e-06
9.13483e-06
9.14173e-06
9.15035e-06
9.16113e-06
9.17358e-06
9.1854e-06
9.19469e-06
9.20245e-06
9.21295e-06
9.22404e-06
9.22437e-06
9.19219e-06
9.19499e-06
9.23515e-06
9.23967e-06
9.20349e-06
9.4787e-06
3.95162e-05
9.1312e-06
9.121e-06
9.12679e-06
9.12524e-06
9.12324e-06
9.12028e-06
9.118e-06
9.11799e-06
9.11842e-06
9.11919e-06
9.12064e-06
9.12104e-06
9.12132e-06
9.12178e-06
9.12213e-06
9.12265e-06
9.12289e-06
9.1224e-06
9.12246e-06
9.1223e-06
9.12167e-06
9.1227e-06
9.12402e-06
9.12456e-06
9.12662e-06
9.1291e-06
9.13115e-06
9.13397e-06
9.13996e-06
9.14834e-06
9.1589e-06
9.17121e-06
9.184e-06
9.19421e-06
9.20113e-06
9.2087e-06
9.22167e-06
9.22769e-06
9.20668e-06
9.18642e-06
9.21076e-06
9.21502e-06
9.19781e-06
9.48865e-06
9.49884e-06
0.000715963
9.13029e-06
9.11475e-06
9.12432e-06
9.12562e-06
9.12615e-06
9.12335e-06
9.12046e-06
9.11866e-06
9.11845e-06
9.11876e-06
9.12036e-06
9.12152e-06
9.12189e-06
9.12251e-06
9.1229e-06
9.12334e-06
9.12402e-06
9.12374e-06
9.12348e-06
9.12358e-06
9.12259e-06
9.12242e-06
9.12455e-06
9.12525e-06
9.12687e-06
9.12974e-06
9.13256e-06
9.13417e-06
9.13861e-06
9.14618e-06
9.15656e-06
9.16879e-06
9.18231e-06
9.19425e-06
9.20215e-06
9.20748e-06
9.21834e-06
9.22788e-06
9.22078e-06
9.18916e-06
9.19383e-06
9.19371e-06
9.19974e-06
9.44322e-06
1.0514e-05
0.000242551
0.00212305
9.13145e-06
9.10558e-06
9.11919e-06
9.12259e-06
9.12675e-06
9.12648e-06
9.12432e-06
9.12097e-06
9.11947e-06
9.11867e-06
9.11973e-06
9.1215e-06
9.12228e-06
9.12317e-06
9.12379e-06
9.12412e-06
9.12502e-06
9.12514e-06
9.12476e-06
9.12504e-06
9.12426e-06
9.12281e-06
9.12437e-06
9.12569e-06
9.12709e-06
9.12993e-06
9.13387e-06
9.13548e-06
9.13831e-06
9.1443e-06
9.15397e-06
9.16625e-06
9.18023e-06
9.19397e-06
9.20405e-06
9.20894e-06
9.21578e-06
9.22687e-06
9.22873e-06
9.19932e-06
9.18668e-06
9.18112e-06
9.19976e-06
9.41358e-06
9.78523e-06
0.000112587
0.00153272
0.00316655
9.1333e-06
9.10029e-06
9.11227e-06
9.11587e-06
9.12259e-06
9.12721e-06
9.12795e-06
9.12486e-06
9.1222e-06
9.11982e-06
9.11945e-06
9.12103e-06
9.12231e-06
9.12347e-06
9.12454e-06
9.12497e-06
9.12579e-06
9.12635e-06
9.12611e-06
9.12638e-06
9.1263e-06
9.12439e-06
9.12425e-06
9.12587e-06
9.12746e-06
9.12984e-06
9.13439e-06
9.13729e-06
9.13928e-06
9.14342e-06
9.15145e-06
9.16338e-06
9.17754e-06
9.19262e-06
9.20506e-06
9.21139e-06
9.21514e-06
9.22468e-06
9.23061e-06
9.21237e-06
9.18883e-06
9.1785e-06
9.19783e-06
9.38291e-06
9.78067e-06
2.68965e-05
0.00111654
0.00284352
0.00386152
9.13776e-06
9.10666e-06
9.10919e-06
9.10717e-06
9.11361e-06
9.12248e-06
9.12837e-06
9.12861e-06
9.12641e-06
9.12294e-06
9.12049e-06
9.12073e-06
9.12198e-06
9.12325e-06
9.12481e-06
9.12571e-06
9.12635e-06
9.12723e-06
9.12736e-06
9.12748e-06
9.12812e-06
9.12693e-06
9.12509e-06
9.12608e-06
9.12793e-06
9.12977e-06
9.13394e-06
9.13861e-06
9.14101e-06
9.14397e-06
9.14979e-06
9.1603e-06
9.17404e-06
9.18976e-06
9.20409e-06
9.21304e-06
9.21619e-06
9.22213e-06
9.22934e-06
9.2235e-06
9.19656e-06
9.18303e-06
9.19565e-06
9.3528e-06
9.71352e-06
1.34317e-05
0.000695066
0.00257404
0.00369767
0.00430587
9.14848e-06
9.13581e-06
9.11621e-06
9.10412e-06
9.10288e-06
9.11216e-06
9.12231e-06
9.12902e-06
9.13014e-06
9.12765e-06
9.1236e-06
9.12161e-06
9.12184e-06
9.12267e-06
9.12443e-06
9.12604e-06
9.12671e-06
9.12777e-06
9.12834e-06
9.12836e-06
9.12934e-06
9.12964e-06
9.12727e-06
9.12686e-06
9.12844e-06
9.12994e-06
9.13293e-06
9.13872e-06
9.14254e-06
9.14564e-06
9.14976e-06
9.15777e-06
9.17007e-06
9.18554e-06
9.2011e-06
9.21293e-06
9.21789e-06
9.22095e-06
9.22743e-06
9.22824e-06
9.20547e-06
9.18978e-06
9.19588e-06
9.32442e-06
9.64793e-06
1.05347e-05
0.000375065
0.00221867
0.00354253
0.0042643
0.00455168
9.16933e-06
9.18159e-06
9.14304e-06
9.11416e-06
9.1006e-06
9.10017e-06
9.11029e-06
9.12258e-06
9.13004e-06
9.13172e-06
9.12836e-06
9.12453e-06
9.12282e-06
9.12247e-06
9.1237e-06
9.12578e-06
9.12686e-06
9.12805e-06
9.12901e-06
9.12913e-06
9.12995e-06
9.13163e-06
9.13036e-06
9.1287e-06
9.1292e-06
9.13046e-06
9.13209e-06
9.13765e-06
9.14304e-06
9.14747e-06
9.15143e-06
9.15694e-06
9.16676e-06
9.18084e-06
9.19689e-06
9.21116e-06
9.21922e-06
9.22198e-06
9.22623e-06
9.22755e-06
9.21268e-06
9.19452e-06
9.19872e-06
9.30095e-06
9.57526e-06
1.00589e-05
0.00015654
0.00179267
0.00334317
0.00419237
0.00460353
0.00464158
9.20332e-06
9.21845e-06
9.18491e-06
9.14607e-06
9.11541e-06
9.09853e-06
9.0974e-06
9.1099e-06
9.12265e-06
9.13159e-06
9.13256e-06
9.12917e-06
9.12577e-06
9.12368e-06
9.12346e-06
9.12516e-06
9.12681e-06
9.12814e-06
9.12939e-06
9.12988e-06
9.13027e-06
9.13246e-06
9.13329e-06
9.13157e-06
9.13066e-06
9.13146e-06
9.13206e-06
9.13611e-06
9.14235e-06
9.14847e-06
9.15392e-06
9.15838e-06
9.16553e-06
9.17717e-06
9.19264e-06
9.20837e-06
9.2196e-06
9.22449e-06
9.22688e-06
9.22577e-06
9.2159e-06
9.19653e-06
9.20187e-06
9.28305e-06
9.50843e-06
9.92552e-06
4.38345e-05
0.00132051
0.0031049
0.00409381
0.00459563
0.00476295
0.00461138
9.2331e-06
9.23046e-06
9.21966e-06
9.19136e-06
9.15453e-06
9.11682e-06
9.09706e-06
9.09651e-06
9.10907e-06
9.12383e-06
9.13266e-06
9.13349e-06
9.13048e-06
9.12709e-06
9.12482e-06
9.125e-06
9.12672e-06
9.12813e-06
9.1296e-06
9.13061e-06
9.13073e-06
9.13235e-06
9.13504e-06
9.13481e-06
9.13321e-06
9.13321e-06
9.13319e-06
9.13511e-06
9.14097e-06
9.14814e-06
9.15576e-06
9.16137e-06
9.16708e-06
9.17593e-06
9.18953e-06
9.20534e-06
9.21885e-06
9.22688e-06
9.22971e-06
9.22682e-06
9.21589e-06
9.19786e-06
9.20265e-06
9.26865e-06
9.45125e-06
9.84074e-06
1.59513e-05
0.00086394
0.00281977
0.00396316
0.00457465
0.0048037
0.00478262
0.00449103
9.23259e-06
9.17684e-06
9.23272e-06
9.22277e-06
9.2047e-06
9.16101e-06
9.11901e-06
9.09672e-06
9.09548e-06
9.10979e-06
9.1253e-06
9.13403e-06
9.13502e-06
9.13235e-06
9.12848e-06
9.12634e-06
9.12707e-06
9.12824e-06
9.12979e-06
9.13127e-06
9.13158e-06
9.13207e-06
9.13526e-06
9.13731e-06
9.13659e-06
9.13593e-06
9.13552e-06
9.13541e-06
9.13968e-06
9.14672e-06
9.15577e-06
9.16401e-06
9.17045e-06
9.17753e-06
9.18844e-06
9.20284e-06
9.21719e-06
9.22787e-06
9.23346e-06
9.23152e-06
9.21796e-06
9.19975e-06
9.20057e-06
9.25507e-06
9.40448e-06
9.74774e-06
1.09453e-05
0.000489619
0.00247053
0.00379958
0.00452686
0.00484218
0.0048592
0.0046962
0.00430532
9.17695e-06
9.06684e-06
9.18366e-06
9.22541e-06
9.23207e-06
9.21437e-06
9.16752e-06
9.12061e-06
9.09669e-06
9.09594e-06
9.11169e-06
9.12733e-06
9.13598e-06
9.13739e-06
9.13398e-06
9.12991e-06
9.12852e-06
9.12883e-06
9.1301e-06
9.13183e-06
9.13274e-06
9.13238e-06
9.13454e-06
9.13825e-06
9.13976e-06
9.1394e-06
9.13887e-06
9.13737e-06
9.13924e-06
9.14493e-06
9.15374e-06
9.16432e-06
9.17331e-06
9.18077e-06
9.18957e-06
9.20168e-06
9.21541e-06
9.2273e-06
9.23616e-06
9.2382e-06
9.22554e-06
9.20407e-06
9.19787e-06
9.24162e-06
9.36722e-06
9.65514e-06
1.00521e-05
0.000226407
0.0020422
0.00359956
0.00445427
0.00485825
0.0049422
0.00479803
0.0045318
0.00407469
9.06633e-06
8.94801e-06
9.07578e-06
9.16246e-06
9.22153e-06
9.23848e-06
9.22301e-06
9.17189e-06
9.12259e-06
9.0972e-06
9.09792e-06
9.11407e-06
9.12969e-06
9.13871e-06
9.13928e-06
9.13532e-06
9.13167e-06
9.1304e-06
9.13077e-06
9.13225e-06
9.13384e-06
9.13358e-06
9.13401e-06
9.13766e-06
9.14149e-06
9.14276e-06
9.14279e-06
9.14085e-06
9.14019e-06
9.1437e-06
9.15063e-06
9.16158e-06
9.17328e-06
9.18324e-06
9.19202e-06
9.2024e-06
9.21473e-06
9.22631e-06
9.2369e-06
9.24418e-06
9.23707e-06
9.21301e-06
9.1978e-06
9.22967e-06
9.33848e-06
9.57767e-06
9.9077e-06
6.87455e-05
0.00154653
0.00335998
0.00435449
0.00485554
0.00500664
0.00491311
0.00465026
0.00431268
0.00381599
8.93893e-06
8.89025e-06
8.94982e-06
9.04838e-06
9.13995e-06
9.21845e-06
9.24387e-06
9.22929e-06
9.1759e-06
9.12333e-06
9.0984e-06
9.09962e-06
9.11633e-06
9.13257e-06
9.14098e-06
9.14071e-06
9.1364e-06
9.13342e-06
9.13216e-06
9.13271e-06
9.13453e-06
9.13531e-06
9.13458e-06
9.13654e-06
9.14125e-06
9.14484e-06
9.14647e-06
9.14536e-06
9.1429e-06
9.14395e-06
9.1481e-06
9.15693e-06
9.16954e-06
9.18259e-06
9.19386e-06
9.20459e-06
9.21608e-06
9.22672e-06
9.23686e-06
9.24775e-06
9.2482e-06
9.22614e-06
9.2022e-06
9.22088e-06
9.31663e-06
9.51962e-06
9.86503e-06
1.94187e-05
0.00103913
0.0030726
0.00422506
0.00483213
0.00505706
0.00501315
0.00478716
0.00444097
0.00405807
0.00354323
8.85916e-06
8.94264e-06
8.87486e-06
8.93256e-06
9.01537e-06
9.12446e-06
9.21593e-06
9.24891e-06
9.23431e-06
9.17708e-06
9.12289e-06
9.09814e-06
9.10063e-06
9.11875e-06
9.13532e-06
9.14285e-06
9.1415e-06
9.13786e-06
9.13481e-06
9.13366e-06
9.13481e-06
9.13677e-06
9.13632e-06
9.13621e-06
9.13972e-06
9.14493e-06
9.14891e-06
9.14997e-06
9.14736e-06
9.14641e-06
9.1478e-06
9.15284e-06
9.16351e-06
9.17801e-06
9.19285e-06
9.20641e-06
9.21901e-06
9.2297e-06
9.23851e-06
9.24977e-06
9.25634e-06
9.24038e-06
9.21072e-06
9.21558e-06
9.29862e-06
9.47719e-06
9.80323e-06
1.11447e-05
0.000601603
0.00271882
0.0040613
0.00478659
0.00509168
0.00510314
0.00491222
0.00459135
0.00419097
0.00378396
0.00326832
8.88349e-06
9.09395e-06
8.90975e-06
8.88267e-06
8.90869e-06
8.99394e-06
9.11238e-06
9.21662e-06
9.25295e-06
9.23628e-06
9.1754e-06
9.12005e-06
9.0967e-06
9.10146e-06
9.12159e-06
9.13795e-06
9.1442e-06
9.14281e-06
9.13894e-06
9.13582e-06
9.13524e-06
9.13746e-06
9.13841e-06
9.13739e-06
9.1385e-06
9.1434e-06
9.14936e-06
9.15351e-06
9.15292e-06
9.15124e-06
9.15068e-06
9.15182e-06
9.15823e-06
9.171e-06
9.18786e-06
9.20527e-06
9.22125e-06
9.23443e-06
9.2435e-06
9.25315e-06
9.26252e-06
9.25361e-06
9.22229e-06
9.21332e-06
9.28076e-06
9.44141e-06
9.72955e-06
9.92919e-06
0.000288585
0.00227727
0.00385808
0.00471596
0.00510984
0.00518117
0.00503069
0.00473278
0.00434828
0.00391763
0.0035039
0.0030019
9.02372e-06
9.26506e-06
9.06062e-06
8.94374e-06
8.88873e-06
8.89453e-06
8.97789e-06
9.10675e-06
9.2183e-06
9.25617e-06
9.23531e-06
9.17194e-06
9.11588e-06
9.09473e-06
9.10322e-06
9.1247e-06
9.14063e-06
9.14583e-06
9.14399e-06
9.13974e-06
9.13692e-06
9.13768e-06
9.1399e-06
9.1397e-06
9.13894e-06
9.14169e-06
9.14792e-06
9.15488e-06
9.15806e-06
9.15765e-06
9.15655e-06
9.15515e-06
9.15677e-06
9.16484e-06
9.18005e-06
9.19954e-06
9.21966e-06
9.2378e-06
9.25058e-06
9.25996e-06
9.26993e-06
9.26687e-06
9.2373e-06
9.21532e-06
9.26199e-06
9.40426e-06
9.65523e-06
9.83895e-06
9.499e-05
0.00175258
0.00361153
0.00461695
0.00510974
0.00524698
0.00514042
0.00487063
0.00449908
0.00407689
0.00363571
0.00322993
0.00275408
9.22996e-06
9.35042e-06
9.26164e-06
9.10249e-06
8.9876e-06
8.89409e-06
8.88475e-06
8.96842e-06
9.10533e-06
9.22327e-06
9.25912e-06
9.23496e-06
9.16787e-06
9.11082e-06
9.09385e-06
9.10556e-06
9.12844e-06
9.14309e-06
9.1477e-06
9.14516e-06
9.14071e-06
9.13873e-06
9.14058e-06
9.14207e-06
9.1412e-06
9.14136e-06
9.14572e-06
9.15376e-06
9.161e-06
9.16381e-06
9.16395e-06
9.16226e-06
9.1606e-06
9.16298e-06
9.17277e-06
9.19019e-06
9.21241e-06
9.23587e-06
9.25539e-06
9.26857e-06
9.28017e-06
9.28248e-06
9.25771e-06
9.22545e-06
9.24684e-06
9.36483e-06
9.58308e-06
9.84692e-06
2.34914e-05
0.00120197
0.00331601
0.00448625
0.00508917
0.00529954
0.00524119
0.00500257
0.00464894
0.00423164
0.00379335
0.00335822
0.00297342
0.00253532
9.40881e-06
9.29245e-06
9.40034e-06
9.28142e-06
9.16975e-06
9.01498e-06
8.8996e-06
8.87744e-06
8.96508e-06
9.11123e-06
9.23256e-06
9.2659e-06
9.23572e-06
9.16278e-06
9.10652e-06
9.09363e-06
9.10872e-06
9.13165e-06
9.14612e-06
9.14991e-06
9.14656e-06
9.14193e-06
9.14148e-06
9.1437e-06
9.14426e-06
9.1431e-06
9.14442e-06
9.15099e-06
9.16062e-06
9.16754e-06
9.17063e-06
9.171e-06
9.16892e-06
9.16721e-06
9.17004e-06
9.18116e-06
9.20099e-06
9.22677e-06
9.25293e-06
9.27353e-06
9.29039e-06
9.30007e-06
9.28431e-06
9.24764e-06
9.24439e-06
9.33141e-06
9.51612e-06
9.80002e-06
1.14392e-05
0.000717288
0.00295672
0.00432007
0.00504566
0.00533751
0.00533236
0.00512823
0.00479541
0.00438763
0.00394803
0.00351192
0.00309739
0.00274596
0.00235683
9.47411e-06
9.13065e-06
9.38689e-06
9.37723e-06
9.3385e-06
9.20756e-06
9.03688e-06
8.90072e-06
8.87446e-06
8.96982e-06
9.1254e-06
9.24863e-06
9.27602e-06
9.23587e-06
9.15761e-06
9.10266e-06
9.09383e-06
9.11162e-06
9.13558e-06
9.1498e-06
9.15224e-06
9.14771e-06
9.14411e-06
9.14502e-06
9.14691e-06
9.14636e-06
9.14522e-06
9.14835e-06
9.1574e-06
9.16753e-06
9.17438e-06
9.17846e-06
9.17893e-06
9.17656e-06
9.1743e-06
9.17749e-06
9.19035e-06
9.2129e-06
9.24139e-06
9.26919e-06
9.29418e-06
9.31454e-06
9.31327e-06
9.28191e-06
9.26206e-06
9.3165e-06
9.46331e-06
9.71816e-06
9.6593e-06
0.000364555
0.00251302
0.0041147
0.00497674
0.00535928
0.00541318
0.00524705
0.00493794
0.00454249
0.00410565
0.00366378
0.00324592
0.00286553
0.0025598
0.00223011
9.39947e-06
8.97582e-06
9.22252e-06
9.329e-06
9.38967e-06
9.36589e-06
9.23596e-06
9.04863e-06
8.90044e-06
8.87559e-06
8.98269e-06
9.14623e-06
9.27026e-06
9.28681e-06
9.23491e-06
9.1524e-06
9.09846e-06
9.09455e-06
9.11517e-06
9.14031e-06
9.15333e-06
9.15406e-06
9.14938e-06
9.14735e-06
9.14893e-06
9.14992e-06
9.14825e-06
9.14769e-06
9.15338e-06
9.16424e-06
9.17416e-06
9.18222e-06
9.18705e-06
9.18761e-06
9.18465e-06
9.18225e-06
9.18647e-06
9.20069e-06
9.22473e-06
9.25461e-06
9.28641e-06
9.3185e-06
9.33585e-06
9.32098e-06
9.29828e-06
9.32705e-06
9.43418e-06
9.63525e-06
9.5184e-06
0.000139288
0.00198473
0.00386798
0.00488046
0.00536342
0.00548282
0.00535859
0.00507587
0.00469551
0.00426412
0.00381987
0.00339339
0.00300862
0.0026755
0.00242738
0.00216485
9.23123e-06
8.92924e-06
9.00491e-06
9.16573e-06
9.28479e-06
9.38979e-06
9.38404e-06
9.2537e-06
9.05226e-06
8.89698e-06
8.87946e-06
8.99847e-06
9.17251e-06
9.2947e-06
9.29597e-06
9.23347e-06
9.14625e-06
9.09549e-06
9.09558e-06
9.11943e-06
9.14477e-06
9.15648e-06
9.15583e-06
9.15196e-06
9.15131e-06
9.15309e-06
9.15262e-06
9.14998e-06
9.15118e-06
9.15988e-06
9.17074e-06
9.18139e-06
9.19048e-06
9.19604e-06
9.19697e-06
9.19429e-06
9.19258e-06
9.1972e-06
9.21153e-06
9.236e-06
9.26848e-06
9.30818e-06
9.34308e-06
9.35121e-06
9.34011e-06
9.35713e-06
9.43019e-06
9.56869e-06
9.60736e-06
3.40076e-05
0.00141654
0.00357646
0.00475507
0.00534897
0.00554072
0.0054625
0.00520879
0.00484589
0.00442267
0.00397843
0.00354596
0.00315116
0.00281374
0.00254025
0.00235915
0.00216353
9.05352e-06
9.01222e-06
8.86168e-06
8.98805e-06
9.08475e-06
9.25741e-06
9.38509e-06
9.39777e-06
9.26037e-06
9.046e-06
8.88789e-06
8.88051e-06
9.01604e-06
9.2034e-06
9.31783e-06
9.30462e-06
9.23096e-06
9.14092e-06
9.09224e-06
9.09698e-06
9.12378e-06
9.14931e-06
9.15927e-06
9.15807e-06
9.1555e-06
9.15622e-06
9.15731e-06
9.15484e-06
9.15257e-06
9.1572e-06
9.16641e-06
9.17717e-06
9.18856e-06
9.19876e-06
9.20598e-06
9.20834e-06
9.2067e-06
9.20559e-06
9.21005e-06
9.22404e-06
9.24945e-06
9.28814e-06
9.33276e-06
9.3616e-06
9.36973e-06
9.38941e-06
9.44155e-06
9.52271e-06
9.64888e-06
1.22254e-05
0.00088853
0.00322536
0.00459737
0.00531503
0.00558672
0.00555888
0.00533657
0.00499306
0.00458035
0.00413879
0.00370231
0.00329935
0.00295174
0.0026749
0.00247061
0.00235799
0.00222464
8.93811e-06
9.15364e-06
8.86747e-06
8.89871e-06
8.90991e-06
9.04659e-06
9.23158e-06
9.38578e-06
9.40433e-06
9.25542e-06
9.02758e-06
8.87126e-06
8.87708e-06
9.03811e-06
9.23479e-06
9.34087e-06
9.31285e-06
9.22764e-06
9.13452e-06
9.08879e-06
9.0992e-06
9.12885e-06
9.15365e-06
9.16211e-06
9.16131e-06
9.16048e-06
9.16187e-06
9.16109e-06
9.1576e-06
9.1581e-06
9.16391e-06
9.17235e-06
9.18318e-06
9.1956e-06
9.20813e-06
9.21789e-06
9.22215e-06
9.22241e-06
9.22259e-06
9.22715e-06
9.24118e-06
9.27018e-06
9.31298e-06
9.352e-06
9.37642e-06
9.40614e-06
9.45269e-06
9.49366e-06
9.61247e-06
8.96826e-06
0.000475033
0.00278736
0.00440098
0.00525992
0.00562089
0.0056483
0.0054597
0.00513688
0.00473638
0.00429991
0.00386193
0.00345232
0.00309572
0.00280954
0.00260349
0.00246967
0.00242235
0.00234578
8.91561e-06
9.2447e-06
9.0016e-06
8.93724e-06
8.86055e-06
8.88236e-06
9.01533e-06
9.21819e-06
9.38839e-06
9.40448e-06
9.23833e-06
9.00071e-06
8.84464e-06
8.87516e-06
9.06331e-06
9.26705e-06
9.36482e-06
9.31837e-06
9.22255e-06
9.12721e-06
9.08675e-06
9.10257e-06
9.1343e-06
9.1579e-06
9.16579e-06
9.16594e-06
9.16684e-06
9.16756e-06
9.16502e-06
9.16279e-06
9.16505e-06
9.17003e-06
9.17793e-06
9.18938e-06
9.20368e-06
9.21896e-06
9.23135e-06
9.23911e-06
9.24315e-06
9.24524e-06
9.2503e-06
9.26631e-06
9.29819e-06
9.33497e-06
9.36505e-06
9.40202e-06
9.45312e-06
9.47691e-06
9.53857e-06
8.87204e-06
0.000198994
0.00224518
0.0041574
0.00517993
0.00564299
0.00573172
0.00557929
0.00527797
0.00489045
0.00446082
0.00402382
0.00360979
0.00324518
0.00295035
0.00273653
0.00260288
0.00253591
0.00254946
0.00251864
8.97617e-06
9.22629e-06
9.16735e-06
9.06082e-06
8.95675e-06
8.85582e-06
8.86475e-06
8.99604e-06
9.2149e-06
9.39388e-06
9.39999e-06
9.21644e-06
8.96336e-06
8.81457e-06
8.87847e-06
9.09042e-06
9.30176e-06
9.38517e-06
9.32222e-06
9.21588e-06
9.12076e-06
9.08575e-06
9.10693e-06
9.1399e-06
9.16272e-06
9.17035e-06
9.17223e-06
9.17395e-06
9.17313e-06
9.17017e-06
9.16992e-06
9.17211e-06
9.17631e-06
9.18437e-06
9.19642e-06
9.21245e-06
9.23036e-06
9.24699e-06
9.26043e-06
9.26867e-06
9.27284e-06
9.28025e-06
9.29986e-06
9.32746e-06
9.35308e-06
9.38841e-06
9.44487e-06
9.47133e-06
9.47833e-06
9.25262e-06
4.80787e-05
0.00162794
0.00385633
0.00506831
0.00565134
0.00581001
0.005697
0.00541773
0.00504307
0.00462095
0.00418682
0.00377083
0.00340011
0.00309711
0.0028759
0.00273641
0.00267154
0.00266636