/*--------------------------------*- C++ -*----------------------------------*\
  =========                 |
  \\      /  F ield         | OpenFOAM: The Open Source CFD Toolbox
   \\    /   O peration     | Website:  https://openfoam.org
    \\  /    A nd           | Version:  dev
     \\/     M anipulation  |
\*---------------------------------------------------------------------------*/
FoamFile
{
    version     2.0;
    format      ascii;
    class       volScalarField;
    location    "150";
    object      nuTilda;
}
// * * * * * * * * * * * * * * * * * * * * * * * * * * * * * * * * * * * * * //

dimensions      [0 2 -1 0 0 0 0];

internalField   nonuniform List<scalar> 
29380
(
6.00533e-05
6.00501e-05
6.00522e-05
6.00501e-05
6.00478e-05
6.00301e-05
6.0049e-05
6.00462e-05
6.00281e-05
6.00401e-05
6.00464e-05
6.0044e-05
6.00274e-05
6.00368e-05
6.00216e-05
6.00422e-05
6.00414e-05
6.00266e-05
6.00353e-05
6.00218e-05
6.00243e-05
6.00375e-05
6.00383e-05
6.00256e-05
6.00337e-05
6.0022e-05
6.00233e-05
6.00163e-05
6.00337e-05
6.00351e-05
6.00246e-05
6.00323e-05
6.00216e-05
6.00232e-05
6.00169e-05
6.00148e-05
6.00318e-05
6.00323e-05
6.00242e-05
6.00308e-05
6.00209e-05
6.00232e-05
6.00169e-05
6.00153e-05
6.00115e-05
6.00319e-05
6.00304e-05
6.00245e-05
6.00296e-05
6.00203e-05
6.00233e-05
6.00167e-05
6.00157e-05
6.00124e-05
6.00117e-05
6.00335e-05
6.00294e-05
6.00252e-05
6.00288e-05
6.00199e-05
6.0023e-05
6.00165e-05
6.00163e-05
6.00128e-05
6.00118e-05
6.0014e-05
6.00355e-05
6.00292e-05
6.00256e-05
6.00285e-05
6.00198e-05
6.00224e-05
6.00166e-05
6.00167e-05
6.00132e-05
6.00124e-05
6.0013e-05
6.00167e-05
6.00369e-05
6.00291e-05
6.00253e-05
6.00283e-05
6.00198e-05
6.00218e-05
6.00171e-05
6.00168e-05
6.00137e-05
6.00128e-05
6.00129e-05
6.00152e-05
6.00192e-05
6.00367e-05
6.00288e-05
6.00241e-05
6.00279e-05
6.00197e-05
6.00213e-05
6.00177e-05
6.00168e-05
6.00143e-05
6.00131e-05
6.00131e-05
6.00147e-05
6.00174e-05
6.00221e-05
6.00347e-05
6.00279e-05
6.00225e-05
6.0027e-05
6.00194e-05
6.00211e-05
6.00182e-05
6.00168e-05
6.00151e-05
6.00135e-05
6.00134e-05
6.00142e-05
6.00168e-05
6.00198e-05
6.00252e-05
6.00313e-05
6.00262e-05
6.00212e-05
6.00256e-05
6.00193e-05
6.00211e-05
6.00184e-05
6.0017e-05
6.00157e-05
6.0014e-05
6.00138e-05
6.00141e-05
6.0016e-05
6.00192e-05
6.00222e-05
6.00291e-05
6.00279e-05
6.00243e-05
6.00208e-05
6.00242e-05
6.00194e-05
6.00211e-05
6.00184e-05
6.00175e-05
6.00161e-05
6.00147e-05
6.00141e-05
6.00142e-05
6.00154e-05
6.00182e-05
6.00213e-05
6.00252e-05
6.00341e-05
6.00257e-05
6.00225e-05
6.00212e-05
6.00232e-05
6.002e-05
6.00209e-05
6.00183e-05
6.00181e-05
6.00163e-05
6.00154e-05
6.00144e-05
6.00146e-05
6.00151e-05
6.00174e-05
6.00202e-05
6.0024e-05
6.00288e-05
6.00395e-05
6.0026e-05
6.00215e-05
6.00224e-05
6.00229e-05
6.00207e-05
6.00207e-05
6.00183e-05
6.00187e-05
6.00164e-05
6.00162e-05
6.00148e-05
6.0015e-05
6.00151e-05
6.00167e-05
6.00192e-05
6.00225e-05
6.00269e-05
6.00326e-05
6.00467e-05
6.00285e-05
6.00215e-05
6.00238e-05
6.00233e-05
6.00212e-05
6.00207e-05
6.00186e-05
6.00191e-05
6.00168e-05
6.00168e-05
6.00155e-05
6.00153e-05
6.00154e-05
6.00162e-05
6.00184e-05
6.00213e-05
6.00248e-05
6.00305e-05
6.00391e-05
6.0055e-05
6.0032e-05
6.00223e-05
6.0025e-05
6.0024e-05
6.00212e-05
6.00211e-05
6.0019e-05
6.00192e-05
6.00174e-05
6.00172e-05
6.00163e-05
6.00156e-05
6.00158e-05
6.00161e-05
6.00178e-05
6.00204e-05
6.00234e-05
6.00285e-05
6.00368e-05
6.00458e-05
6.00652e-05
6.00346e-05
6.00233e-05
6.00255e-05
6.00247e-05
6.00209e-05
6.00216e-05
6.00193e-05
6.00193e-05
6.00182e-05
6.00175e-05
6.00171e-05
6.00161e-05
6.00163e-05
6.00164e-05
6.00175e-05
6.00198e-05
6.00228e-05
6.00273e-05
6.0034e-05
6.00432e-05
6.00542e-05
6.00775e-05
6.00352e-05
6.00238e-05
6.00253e-05
6.00251e-05
6.00205e-05
6.00222e-05
6.00195e-05
6.00194e-05
6.0019e-05
6.00178e-05
6.00179e-05
6.00168e-05
6.00167e-05
6.00168e-05
6.00174e-05
6.00194e-05
6.00226e-05
6.00266e-05
6.00319e-05
6.00405e-05
6.00513e-05
6.00644e-05
6.00928e-05
6.00337e-05
6.00236e-05
6.00244e-05
6.00251e-05
6.00204e-05
6.00224e-05
6.00197e-05
6.00198e-05
6.00196e-05
6.00183e-05
6.00184e-05
6.00176e-05
6.00172e-05
6.00174e-05
6.00176e-05
6.00192e-05
6.00224e-05
6.0026e-05
6.00302e-05
6.00383e-05
6.0048e-05
6.00607e-05
6.00767e-05
6.01103e-05
6.00319e-05
6.00229e-05
6.00233e-05
6.00245e-05
6.00207e-05
6.00224e-05
6.002e-05
6.00203e-05
6.002e-05
6.00191e-05
6.00188e-05
6.00185e-05
6.00178e-05
6.00179e-05
6.0018e-05
6.0019e-05
6.00219e-05
6.00251e-05
6.00287e-05
6.00359e-05
6.00453e-05
6.00563e-05
6.00711e-05
6.00907e-05
6.01299e-05
6.00316e-05
6.00222e-05
6.00227e-05
6.00238e-05
6.00213e-05
6.00222e-05
6.00206e-05
6.00208e-05
6.00202e-05
6.002e-05
6.00192e-05
6.00194e-05
6.00186e-05
6.00184e-05
6.00185e-05
6.00188e-05
6.0021e-05
6.00237e-05
6.00272e-05
6.00329e-05
6.00422e-05
6.00525e-05
6.00653e-05
6.00827e-05
6.0108e-05
6.01505e-05
6.00335e-05
6.00223e-05
6.0023e-05
6.00233e-05
6.00222e-05
6.00222e-05
6.00215e-05
6.00212e-05
6.00205e-05
6.00209e-05
6.00197e-05
6.002e-05
6.00195e-05
6.00189e-05
6.0019e-05
6.00188e-05
6.00199e-05
6.00221e-05
6.00258e-05
6.00298e-05
6.00384e-05
6.00485e-05
6.00606e-05
6.00752e-05
6.00979e-05
6.01263e-05
6.01727e-05
6.00366e-05
6.00231e-05
6.00244e-05
6.00233e-05
6.00232e-05
6.00224e-05
6.00223e-05
6.00215e-05
6.00211e-05
6.00216e-05
6.00205e-05
6.00205e-05
6.00204e-05
6.00196e-05
6.00195e-05
6.00189e-05
6.00192e-05
6.00208e-05
6.00244e-05
6.00271e-05
6.00342e-05
6.00443e-05
6.00561e-05
6.007e-05
6.00882e-05
6.01148e-05
6.0147e-05
6.01954e-05
6.00392e-05
6.00241e-05
6.00264e-05
6.00241e-05
6.00241e-05
6.00229e-05
6.0023e-05
6.00219e-05
6.00218e-05
6.0022e-05
6.00215e-05
6.0021e-05
6.00213e-05
6.00205e-05
6.002e-05
6.00195e-05
6.00192e-05
6.00205e-05
6.00235e-05
6.00257e-05
6.00305e-05
6.00401e-05
6.00519e-05
6.00657e-05
6.00813e-05
6.01035e-05
6.01338e-05
6.01687e-05
6.0216e-05
6.00401e-05
6.00248e-05
6.00282e-05
6.00253e-05
6.00249e-05
6.00236e-05
6.00234e-05
6.00226e-05
6.00225e-05
6.00225e-05
6.00226e-05
6.00216e-05
6.0022e-05
6.00215e-05
6.00209e-05
6.00206e-05
6.00202e-05
6.00213e-05
6.00233e-05
6.00259e-05
6.00283e-05
6.00364e-05
6.00478e-05
6.00614e-05
6.0076e-05
6.00949e-05
6.01205e-05
6.01541e-05
6.01898e-05
6.02337e-05
6.00402e-05
6.00251e-05
6.00291e-05
6.00266e-05
6.00254e-05
6.00246e-05
6.00236e-05
6.00236e-05
6.00231e-05
6.0023e-05
6.00235e-05
6.00226e-05
6.00226e-05
6.00226e-05
6.00219e-05
6.00219e-05
6.00217e-05
6.00228e-05
6.00241e-05
6.00272e-05
6.00282e-05
6.00335e-05
6.00441e-05
6.00567e-05
6.00713e-05
6.00882e-05
6.011e-05
6.01391e-05
6.01753e-05
6.02098e-05
6.02465e-05
6.00412e-05
6.00254e-05
6.0029e-05
6.00275e-05
6.00257e-05
6.00256e-05
6.00239e-05
6.00246e-05
6.00236e-05
6.00238e-05
6.00242e-05
6.00237e-05
6.00233e-05
6.00236e-05
6.00231e-05
6.00232e-05
6.00233e-05
6.00243e-05
6.00253e-05
6.00287e-05
6.00298e-05
6.00321e-05
6.00408e-05
6.00517e-05
6.00661e-05
6.00827e-05
6.01016e-05
6.01269e-05
6.01598e-05
6.01961e-05
6.0226e-05
6.02511e-05
6.00438e-05
6.00259e-05
6.00285e-05
6.00277e-05
6.00258e-05
6.00265e-05
6.00244e-05
6.00255e-05
6.00241e-05
6.00246e-05
6.00247e-05
6.00249e-05
6.00241e-05
6.00244e-05
6.00243e-05
6.00243e-05
6.00243e-05
6.0025e-05
6.00262e-05
6.00294e-05
6.00319e-05
6.00322e-05
6.0038e-05
6.00474e-05
6.00606e-05
6.00773e-05
6.00949e-05
6.0117e-05
6.01462e-05
6.01807e-05
6.02132e-05
6.02358e-05
6.02454e-05
6.00469e-05
6.00268e-05
6.00285e-05
6.00276e-05
6.00258e-05
6.00271e-05
6.0025e-05
6.00262e-05
6.0025e-05
6.00254e-05
6.00253e-05
6.00259e-05
6.00252e-05
6.00252e-05
6.00253e-05
6.00251e-05
6.00248e-05
6.00247e-05
6.00262e-05
6.00287e-05
6.00332e-05
6.00336e-05
6.00361e-05
6.00442e-05
6.00554e-05
6.00716e-05
6.00892e-05
6.0109e-05
6.01344e-05
6.01662e-05
6.01989e-05
6.02251e-05
6.02376e-05
6.02286e-05
6.00481e-05
6.00273e-05
6.00296e-05
6.00277e-05
6.00262e-05
6.00274e-05
6.00259e-05
6.00266e-05
6.00262e-05
6.00261e-05
6.00261e-05
6.00268e-05
6.00265e-05
6.0026e-05
6.00262e-05
6.00256e-05
6.00249e-05
6.00241e-05
6.00254e-05
6.00271e-05
6.00327e-05
6.00352e-05
6.00354e-05
6.00424e-05
6.00516e-05
6.00658e-05
6.00835e-05
6.01024e-05
6.01245e-05
6.01527e-05
6.01851e-05
6.02139e-05
6.0231e-05
6.02324e-05
6.02002e-05
6.00464e-05
6.00271e-05
6.00313e-05
6.00283e-05
6.00269e-05
6.00276e-05
6.00267e-05
6.00269e-05
6.00274e-05
6.00268e-05
6.00271e-05
6.00274e-05
6.00277e-05
6.0027e-05
6.0027e-05
6.00262e-05
6.00254e-05
6.00239e-05
6.00245e-05
6.00254e-05
6.00305e-05
6.00358e-05
6.0036e-05
6.00415e-05
6.00494e-05
6.00608e-05
6.00777e-05
6.00964e-05
6.01166e-05
6.01414e-05
6.0172e-05
6.02028e-05
6.02244e-05
6.02312e-05
6.02202e-05
6.01638e-05
6.00436e-05
6.00263e-05
6.00327e-05
6.00293e-05
6.00281e-05
6.00278e-05
6.00277e-05
6.00273e-05
6.00285e-05
6.00277e-05
6.00282e-05
6.00282e-05
6.00289e-05
6.00283e-05
6.00279e-05
6.00272e-05
6.00266e-05
6.00249e-05
6.00244e-05
6.00247e-05
6.00277e-05
6.00347e-05
6.00373e-05
6.00409e-05
6.00483e-05
6.00571e-05
6.00721e-05
6.00905e-05
6.01101e-05
6.01325e-05
6.01602e-05
6.01911e-05
6.02167e-05
6.02297e-05
6.02234e-05
6.01863e-05
6.01705e-05
6.00432e-05
6.00257e-05
6.0033e-05
6.00302e-05
6.00295e-05
6.00282e-05
6.00287e-05
6.00278e-05
6.00291e-05
6.00287e-05
6.00291e-05
6.00292e-05
6.00298e-05
6.00297e-05
6.00291e-05
6.00287e-05
6.00285e-05
6.00272e-05
6.00257e-05
6.00255e-05
6.00261e-05
6.00323e-05
6.00382e-05
6.00403e-05
6.00473e-05
6.00549e-05
6.00674e-05
6.00846e-05
6.01044e-05
6.01259e-05
6.01503e-05
6.01791e-05
6.02072e-05
6.02258e-05
6.0227e-05
6.02026e-05
6.01572e-05
6.02514e-05
6.00483e-05
6.00265e-05
6.00325e-05
6.00304e-05
6.00303e-05
6.00289e-05
6.00297e-05
6.00286e-05
6.00295e-05
6.00298e-05
6.00299e-05
6.00304e-05
6.00308e-05
6.00311e-05
6.00306e-05
6.00305e-05
6.00307e-05
6.00303e-05
6.00283e-05
6.00277e-05
6.00266e-05
6.00298e-05
6.00378e-05
6.00398e-05
6.00457e-05
6.00535e-05
6.00642e-05
6.00794e-05
6.00989e-05
6.01204e-05
6.01426e-05
6.01681e-05
6.01961e-05
6.02193e-05
6.02293e-05
6.0217e-05
6.01718e-05
6.01778e-05
6.03831e-05
6.0058e-05
6.00293e-05
6.00325e-05
6.00302e-05
6.00304e-05
6.00296e-05
6.00305e-05
6.00297e-05
6.00298e-05
6.00309e-05
6.00306e-05
6.00315e-05
6.00318e-05
6.00324e-05
6.00323e-05
6.00323e-05
6.00326e-05
6.00331e-05
6.00314e-05
6.00307e-05
6.00292e-05
6.0029e-05
6.00361e-05
6.00395e-05
6.0044e-05
6.00522e-05
6.0062e-05
6.00754e-05
6.00935e-05
6.0115e-05
6.01365e-05
6.01592e-05
6.0185e-05
6.02105e-05
6.02292e-05
6.02288e-05
6.01932e-05
6.01611e-05
6.02748e-05
6.04814e-05
6.0068e-05
6.00333e-05
6.00344e-05
6.00302e-05
6.00297e-05
6.003e-05
6.00308e-05
6.00309e-05
6.00304e-05
6.00318e-05
6.00314e-05
6.00324e-05
6.00328e-05
6.00336e-05
6.00339e-05
6.0034e-05
6.0034e-05
6.00349e-05
6.0034e-05
6.00333e-05
6.00327e-05
6.00308e-05
6.00344e-05
6.00396e-05
6.00431e-05
6.00507e-05
6.006e-05
6.00725e-05
6.00888e-05
6.01093e-05
6.01313e-05
6.0153e-05
6.01758e-05
6.02005e-05
6.02246e-05
6.02363e-05
6.02191e-05
6.01589e-05
6.0217e-05
6.03781e-05
6.04881e-05
6.00728e-05
6.00377e-05
6.00383e-05
6.00315e-05
6.00292e-05
6.003e-05
6.00304e-05
6.00318e-05
6.00312e-05
6.00327e-05
6.00326e-05
6.00331e-05
6.00339e-05
6.00346e-05
6.00353e-05
6.00355e-05
6.0035e-05
6.00356e-05
6.00358e-05
6.00351e-05
6.00357e-05
6.00344e-05
6.00342e-05
6.004e-05
6.00435e-05
6.00495e-05
6.00578e-05
6.00701e-05
6.00851e-05
6.01038e-05
6.01262e-05
6.01487e-05
6.01696e-05
6.01913e-05
6.02153e-05
6.02364e-05
6.02332e-05
6.01788e-05
6.01728e-05
6.03079e-05
6.04037e-05
6.03493e-05
6.00701e-05
6.00414e-05
6.00433e-05
6.00348e-05
6.00301e-05
6.003e-05
6.00295e-05
6.0032e-05
6.0032e-05
6.00334e-05
6.0034e-05
6.00338e-05
6.00349e-05
6.00355e-05
6.00364e-05
6.00369e-05
6.00361e-05
6.0036e-05
6.00368e-05
6.0036e-05
6.00371e-05
6.00381e-05
6.0036e-05
6.00408e-05
6.0045e-05
6.00494e-05
6.00558e-05
6.00675e-05
6.00818e-05
6.00993e-05
6.01212e-05
6.0145e-05
6.01659e-05
6.01845e-05
6.02044e-05
6.02285e-05
6.02374e-05
6.02086e-05
6.01572e-05
6.02399e-05
6.03372e-05
6.03252e-05
6.02576e-05
6.00624e-05
6.00427e-05
6.00473e-05
6.00397e-05
6.00335e-05
6.00308e-05
6.00288e-05
6.00314e-05
6.00322e-05
6.00337e-05
6.00353e-05
6.0035e-05
6.00359e-05
6.00365e-05
6.00373e-05
6.00381e-05
6.00376e-05
6.00368e-05
6.00376e-05
6.00368e-05
6.00372e-05
6.00401e-05
6.00393e-05
6.00419e-05
6.00466e-05
6.00506e-05
6.0055e-05
6.00646e-05
6.00785e-05
6.00954e-05
6.01165e-05
6.01408e-05
6.01633e-05
6.01808e-05
6.01957e-05
6.02168e-05
6.02366e-05
6.02323e-05
6.0166e-05
6.01902e-05
6.02779e-05
6.02811e-05
6.0186e-05
6.11451e-05
6.00551e-05
6.00395e-05
6.00485e-05
6.00445e-05
6.00395e-05
6.00338e-05
6.00297e-05
6.00305e-05
6.00317e-05
6.00333e-05
6.0036e-05
6.00364e-05
6.00369e-05
6.00377e-05
6.00383e-05
6.00393e-05
6.00396e-05
6.00385e-05
6.00387e-05
6.00383e-05
6.00373e-05
6.004e-05
6.00423e-05
6.00433e-05
6.00476e-05
6.00523e-05
6.00561e-05
6.00623e-05
6.00748e-05
6.00915e-05
6.01122e-05
6.01361e-05
6.01606e-05
6.01796e-05
6.01923e-05
6.02075e-05
6.02326e-05
6.02414e-05
6.01912e-05
6.0165e-05
6.02254e-05
6.02345e-05
6.01861e-05
6.06187e-05
0.000102694
6.00527e-05
6.00283e-05
6.00452e-05
6.00466e-05
6.00462e-05
6.00396e-05
6.00338e-05
6.0031e-05
6.00312e-05
6.00323e-05
6.00356e-05
6.00375e-05
6.0038e-05
6.00391e-05
6.00397e-05
6.00405e-05
6.00418e-05
6.0041e-05
6.00405e-05
6.00406e-05
6.00387e-05
6.0039e-05
6.00435e-05
6.00446e-05
6.00479e-05
6.00536e-05
6.00587e-05
6.0062e-05
6.00716e-05
6.00871e-05
6.01077e-05
6.01314e-05
6.01574e-05
6.01797e-05
6.01939e-05
6.02042e-05
6.02265e-05
6.02428e-05
6.02205e-05
6.01637e-05
6.01854e-05
6.01881e-05
6.01825e-05
6.06791e-05
6.05585e-05
0.00071966
6.00545e-05
6.00101e-05
6.00356e-05
6.00428e-05
6.00493e-05
6.00467e-05
6.00412e-05
6.00347e-05
6.00324e-05
6.00315e-05
6.00342e-05
6.00377e-05
6.00389e-05
6.00404e-05
6.00414e-05
6.0042e-05
6.00437e-05
6.00438e-05
6.00429e-05
6.00434e-05
6.00417e-05
6.00391e-05
6.0043e-05
6.00455e-05
6.00482e-05
6.0054e-05
6.00615e-05
6.00642e-05
6.00703e-05
6.0083e-05
6.01026e-05
6.01266e-05
6.01536e-05
6.01795e-05
6.01979e-05
6.02067e-05
6.02213e-05
6.02418e-05
6.02406e-05
6.01794e-05
6.01646e-05
6.01563e-05
6.01857e-05
6.06094e-05
6.27295e-05
0.000269206
0.00212338
6.00579e-05
5.99925e-05
6.00216e-05
6.00301e-05
6.00439e-05
6.00504e-05
6.00497e-05
6.00421e-05
6.00369e-05
6.00328e-05
6.0033e-05
6.00367e-05
6.00391e-05
6.00413e-05
6.0043e-05
6.00436e-05
6.00453e-05
6.00462e-05
6.00455e-05
6.00461e-05
6.00456e-05
6.00416e-05
6.00422e-05
6.00458e-05
6.00487e-05
6.00537e-05
6.00628e-05
6.00677e-05
6.00716e-05
6.00805e-05
6.00972e-05
6.01211e-05
6.01488e-05
6.01776e-05
6.02006e-05
6.02118e-05
6.02195e-05
6.02388e-05
6.02472e-05
6.02034e-05
6.01642e-05
6.01455e-05
6.01837e-05
6.05599e-05
6.11401e-05
0.000162957
0.00153341
0.00316669
6.00618e-05
5.99974e-05
6.00092e-05
6.0012e-05
6.00267e-05
6.00444e-05
6.00532e-05
6.0051e-05
6.00451e-05
6.0038e-05
6.0034e-05
6.00355e-05
6.00384e-05
6.0041e-05
6.00438e-05
6.00452e-05
6.00463e-05
6.0048e-05
6.0048e-05
6.00482e-05
6.00493e-05
6.00464e-05
6.00431e-05
6.00458e-05
6.00495e-05
6.00533e-05
6.0062e-05
6.00707e-05
6.00749e-05
6.00808e-05
6.00931e-05
6.01148e-05
6.01422e-05
6.01727e-05
6.01996e-05
6.02155e-05
6.02211e-05
6.02342e-05
6.02465e-05
6.0227e-05
6.01772e-05
6.0152e-05
6.01806e-05
6.05027e-05
6.11676e-05
8.83817e-05
0.00111792
0.00284369
0.00386161
6.0078e-05
6.00415e-05
6.00164e-05
5.99981e-05
6.00035e-05
6.00244e-05
6.00449e-05
6.00546e-05
6.00541e-05
6.00473e-05
6.00392e-05
6.00362e-05
6.00375e-05
6.00397e-05
6.00432e-05
6.00461e-05
6.00471e-05
6.0049e-05
6.005e-05
6.00499e-05
6.00519e-05
6.00519e-05
6.00468e-05
6.00467e-05
6.00503e-05
6.00534e-05
6.00598e-05
6.00712e-05
6.00781e-05
6.00837e-05
6.00921e-05
6.01091e-05
6.01342e-05
6.01648e-05
6.01944e-05
6.02158e-05
6.02241e-05
6.0231e-05
6.02436e-05
6.02412e-05
6.0193e-05
6.01657e-05
6.01804e-05
6.04482e-05
6.10548e-05
6.84439e-05
0.000698915
0.00257425
0.00369776
0.00430595
6.01162e-05
6.01314e-05
6.0057e-05
6.00102e-05
5.9989e-05
5.99981e-05
6.00212e-05
6.00458e-05
6.0057e-05
6.00571e-05
6.00486e-05
6.0041e-05
6.00385e-05
6.00386e-05
6.00415e-05
6.00457e-05
6.00474e-05
6.00496e-05
6.00513e-05
6.00513e-05
6.00531e-05
6.00562e-05
6.00528e-05
6.00497e-05
6.00514e-05
6.00541e-05
6.00577e-05
6.00692e-05
6.00794e-05
6.00874e-05
6.00947e-05
6.01062e-05
6.01268e-05
6.01553e-05
6.01864e-05
6.02128e-05
6.02267e-05
6.02317e-05
6.02411e-05
6.02426e-05
6.02069e-05
6.01758e-05
6.01847e-05
6.04008e-05
6.09472e-05
6.26502e-05
0.000388052
0.00221897
0.00354264
0.00426437
0.00455175
6.01756e-05
6.02303e-05
6.01386e-05
6.00617e-05
6.00092e-05
5.99833e-05
5.99922e-05
6.00206e-05
6.00463e-05
6.00601e-05
6.00586e-05
6.005e-05
6.00433e-05
6.00399e-05
6.00403e-05
6.00443e-05
6.00473e-05
6.00497e-05
6.0052e-05
6.00527e-05
6.00535e-05
6.00581e-05
6.00589e-05
6.0055e-05
6.00536e-05
6.00556e-05
6.0057e-05
6.00658e-05
6.00782e-05
6.00897e-05
6.00995e-05
6.0108e-05
6.01229e-05
6.01471e-05
6.01779e-05
6.02078e-05
6.02278e-05
6.02359e-05
6.02413e-05
6.02392e-05
6.02159e-05
6.01783e-05
6.019e-05
6.03629e-05
6.08243e-05
6.15997e-05
0.000197386
0.00179316
0.00334329
0.00419245
0.00460359
0.00464164
6.02483e-05
6.02602e-05
6.02305e-05
6.01522e-05
6.00762e-05
6.00094e-05
5.99787e-05
5.99902e-05
6.0019e-05
6.00487e-05
6.00619e-05
6.00601e-05
6.00523e-05
6.00455e-05
6.00419e-05
6.00432e-05
6.00469e-05
6.00497e-05
6.00524e-05
6.00541e-05
6.00541e-05
6.00578e-05
6.00629e-05
6.00614e-05
6.0058e-05
6.00584e-05
6.00586e-05
6.00631e-05
6.00753e-05
6.00894e-05
6.01037e-05
6.01136e-05
6.01248e-05
6.01432e-05
6.0171e-05
6.0202e-05
6.02269e-05
6.02408e-05
6.02456e-05
6.02397e-05
6.02176e-05
6.0179e-05
6.01915e-05
6.03315e-05
6.07112e-05
6.13517e-05
0.000106192
0.00132147
0.00310504
0.00409389
0.0045957
0.00476301
0.00461144
6.02719e-05
6.01934e-05
6.02625e-05
6.0242e-05
6.01789e-05
6.00876e-05
6.00116e-05
5.99771e-05
5.99877e-05
6.00204e-05
6.00512e-05
6.00642e-05
6.00627e-05
6.00556e-05
6.0048e-05
6.00447e-05
6.00471e-05
6.00496e-05
6.00526e-05
6.00554e-05
6.00556e-05
6.00568e-05
6.00636e-05
6.00668e-05
6.00645e-05
6.00631e-05
6.00625e-05
6.00629e-05
6.00722e-05
6.00865e-05
6.01043e-05
6.01195e-05
6.01312e-05
6.01453e-05
6.01679e-05
6.01968e-05
6.02242e-05
6.02434e-05
6.02524e-05
6.02473e-05
6.02202e-05
6.01833e-05
6.01877e-05
6.03022e-05
6.06132e-05
6.12315e-05
7.26529e-05
0.000866335
0.00281995
0.00396325
0.00457471
0.00480375
0.00478267
0.00449109
6.0191e-05
5.99849e-05
6.02049e-05
6.02548e-05
6.02665e-05
6.01984e-05
6.00995e-05
6.00133e-05
5.99761e-05
5.99885e-05
6.0024e-05
6.00549e-05
6.00676e-05
6.0067e-05
6.00586e-05
6.00507e-05
6.00491e-05
6.00503e-05
6.00531e-05
6.00564e-05
6.00578e-05
6.00569e-05
6.00619e-05
6.00692e-05
6.00711e-05
6.00697e-05
6.00686e-05
6.00659e-05
6.00706e-05
6.00826e-05
6.01006e-05
6.01211e-05
6.01376e-05
6.01515e-05
6.01692e-05
6.01938e-05
6.02207e-05
6.02428e-05
6.02582e-05
6.02596e-05
6.02326e-05
6.01914e-05
6.01824e-05
6.02738e-05
6.05324e-05
6.10946e-05
6.33911e-05
0.000497274
0.00247076
0.00379967
0.00452692
0.00484224
0.00485925
0.00469626
0.00430539
5.99869e-05
5.97261e-05
6.00052e-05
6.01676e-05
6.02554e-05
6.02835e-05
6.0216e-05
6.01072e-05
6.00161e-05
5.99769e-05
5.99926e-05
6.00288e-05
6.00593e-05
6.00727e-05
6.00704e-05
6.0061e-05
6.00543e-05
6.00526e-05
6.0054e-05
6.00572e-05
6.00601e-05
6.0059e-05
6.00602e-05
6.00681e-05
6.00752e-05
6.00766e-05
6.00761e-05
6.00721e-05
6.00716e-05
6.00795e-05
6.00941e-05
6.01164e-05
6.01389e-05
6.01572e-05
6.01737e-05
6.01944e-05
6.02187e-05
6.02408e-05
6.02602e-05
6.02716e-05
6.02539e-05
6.0207e-05
6.01816e-05
6.02494e-05
6.04696e-05
6.09522e-05
6.15206e-05
0.00025333
0.00204255
0.00359966
0.00445433
0.0048583
0.00494225
0.00479808
0.00453186
0.00407477
5.97187e-05
5.95628e-05
5.97378e-05
5.99478e-05
6.01297e-05
6.02549e-05
6.02975e-05
6.02283e-05
6.01145e-05
6.00173e-05
5.99799e-05
5.99968e-05
6.00336e-05
6.00649e-05
6.00767e-05
6.00728e-05
6.00631e-05
6.00577e-05
6.00561e-05
6.00578e-05
6.00616e-05
6.00624e-05
6.00607e-05
6.00654e-05
6.00751e-05
6.00813e-05
6.00835e-05
6.00806e-05
6.00759e-05
6.00788e-05
6.0088e-05
6.01069e-05
6.01323e-05
6.01573e-05
6.0178e-05
6.01983e-05
6.02205e-05
6.02409e-05
6.026e-05
6.02792e-05
6.02759e-05
6.02306e-05
6.01885e-05
6.02321e-05
6.0424e-05
6.08334e-05
6.12832e-05
0.00012672
0.00154719
0.0033601
0.00435456
0.00485559
0.0050067
0.00491316
0.00465032
0.00431275
0.00381608
5.9516e-05
5.96221e-05
5.95412e-05
5.96925e-05
5.98796e-05
6.01029e-05
6.02542e-05
6.03094e-05
6.02381e-05
6.01163e-05
6.00172e-05
5.99804e-05
5.99999e-05
6.00388e-05
6.007e-05
6.00799e-05
6.00739e-05
6.00659e-05
6.00604e-05
6.00591e-05
6.0062e-05
6.00656e-05
6.00639e-05
6.0064e-05
6.00718e-05
6.0082e-05
6.00889e-05
6.00897e-05
6.00839e-05
6.00824e-05
6.00859e-05
6.00974e-05
6.012e-05
6.01491e-05
6.01773e-05
6.02025e-05
6.02261e-05
6.0246e-05
6.02623e-05
6.02832e-05
6.02922e-05
6.02568e-05
6.02023e-05
6.02214e-05
6.03898e-05
6.07452e-05
6.12696e-05
7.74816e-05
0.00104067
0.00307275
0.00422513
0.00483218
0.00505711
0.0050132
0.00478721
0.00444104
0.00405815
0.00354333
5.95131e-05
5.99109e-05
5.95583e-05
5.95446e-05
5.96319e-05
5.98346e-05
6.00817e-05
6.02581e-05
6.03182e-05
6.02412e-05
6.01124e-05
6.00122e-05
5.99786e-05
6.00028e-05
6.00447e-05
6.00747e-05
6.00817e-05
6.00761e-05
6.00678e-05
6.00623e-05
6.00622e-05
6.00671e-05
6.00682e-05
6.00657e-05
6.00686e-05
6.0079e-05
6.00904e-05
6.00972e-05
6.00946e-05
6.00908e-05
6.009e-05
6.00933e-05
6.01079e-05
6.01349e-05
6.01685e-05
6.02018e-05
6.02316e-05
6.02555e-05
6.02714e-05
6.0289e-05
6.03041e-05
6.02812e-05
6.02207e-05
6.02143e-05
6.03573e-05
6.06757e-05
6.12046e-05
6.38114e-05
0.000606379
0.00271901
0.00406138
0.00478664
0.00509173
0.00510319
0.00491228
0.00459141
0.00419104
0.00378405
0.00326844
5.97606e-05
6.02816e-05
5.98329e-05
5.96218e-05
5.95392e-05
5.9595e-05
5.98004e-05
6.00727e-05
6.02624e-05
6.03237e-05
6.02375e-05
6.01036e-05
6.00045e-05
5.99759e-05
6.00073e-05
6.00509e-05
6.00792e-05
6.00844e-05
6.00779e-05
6.00691e-05
6.00643e-05
6.00671e-05
6.00714e-05
6.00701e-05
6.00685e-05
6.00749e-05
6.00877e-05
6.01007e-05
6.01052e-05
6.01031e-05
6.01004e-05
6.00979e-05
6.01025e-05
6.01208e-05
6.01529e-05
6.01919e-05
6.02305e-05
6.02638e-05
6.0286e-05
6.03021e-05
6.03183e-05
6.03057e-05
6.02447e-05
6.02115e-05
6.03197e-05
6.06064e-05
6.1093e-05
6.13096e-05
0.000306868
0.00227754
0.00385817
0.00471602
0.00510988
0.00518122
0.00503074
0.00473283
0.00434835
0.00391771
0.00350401
0.00300204
6.01738e-05
6.05096e-05
6.02509e-05
5.99247e-05
5.96973e-05
5.95397e-05
5.95687e-05
5.97808e-05
6.00708e-05
6.02712e-05
6.03268e-05
6.02334e-05
6.00928e-05
5.99951e-05
5.99756e-05
6.0013e-05
6.00583e-05
6.00834e-05
6.00873e-05
6.00796e-05
6.00706e-05
6.00679e-05
6.00726e-05
6.0075e-05
6.00725e-05
6.00732e-05
6.00829e-05
6.0099e-05
6.0112e-05
6.01157e-05
6.01148e-05
6.01107e-05
6.01077e-05
6.01143e-05
6.01365e-05
6.01734e-05
6.02179e-05
6.02628e-05
6.02981e-05
6.03206e-05
6.03394e-05
6.03362e-05
6.028e-05
6.0222e-05
6.02823e-05
6.05291e-05
6.09623e-05
6.11302e-05
0.000146999
0.00175307
0.00361163
0.00461701
0.00510979
0.00524703
0.00514046
0.00487069
0.00449915
0.00407697
0.0036358
0.00323005
0.00275425
6.05649e-05
6.04444e-05
6.05835e-05
6.03084e-05
6.00595e-05
5.97462e-05
5.95431e-05
5.95504e-05
5.9774e-05
6.00825e-05
6.02862e-05
6.03367e-05
6.02303e-05
6.00798e-05
5.99876e-05
5.99766e-05
6.00204e-05
6.00645e-05
6.00887e-05
6.00908e-05
6.00817e-05
6.00728e-05
6.00734e-05
6.00783e-05
6.00786e-05
6.00759e-05
6.00793e-05
6.00934e-05
6.01123e-05
6.01243e-05
6.01287e-05
6.01279e-05
6.01229e-05
6.012e-05
6.01279e-05
6.01533e-05
6.01951e-05
6.02468e-05
6.02969e-05
6.03342e-05
6.0363e-05
6.03737e-05
6.03309e-05
6.02569e-05
6.02637e-05
6.04551e-05
6.08314e-05
6.11847e-05
8.31516e-05
0.00120308
0.00331613
0.00448631
0.00508922
0.00529959
0.00524123
0.00500262
0.004649
0.00423172
0.00379344
0.00335833
0.00297357
0.00253553
6.07468e-05
6.01258e-05
6.06242e-05
6.05555e-05
6.04371e-05
6.01373e-05
5.97861e-05
5.95404e-05
5.95432e-05
5.97848e-05
6.01102e-05
6.03136e-05
6.03525e-05
6.02255e-05
6.0067e-05
5.99811e-05
5.99788e-05
6.00269e-05
6.00721e-05
6.00951e-05
6.00946e-05
6.00834e-05
6.00771e-05
6.00802e-05
6.0084e-05
6.0082e-05
6.00798e-05
6.00873e-05
6.01062e-05
6.01254e-05
6.01373e-05
6.01436e-05
6.01428e-05
6.01371e-05
6.01332e-05
6.01421e-05
6.01713e-05
6.0219e-05
6.02764e-05
6.03299e-05
6.03759e-05
6.04084e-05
6.0392e-05
6.03196e-05
6.02844e-05
6.04104e-05
6.07195e-05
6.11446e-05
6.45578e-05
0.000720649
0.00295687
0.00432014
0.00504571
0.00533755
0.0053324
0.00512828
0.00479547
0.00438769
0.00394811
0.00351203
0.00309753
0.00274613
0.00235706
6.06415e-05
5.97694e-05
6.0331e-05
6.05133e-05
6.06039e-05
6.05015e-05
6.01966e-05
5.98064e-05
5.9538e-05
5.95474e-05
5.98139e-05
6.01523e-05
6.03513e-05
6.03689e-05
6.02188e-05
6.00544e-05
5.99743e-05
5.99817e-05
6.00348e-05
6.00813e-05
6.01013e-05
6.00973e-05
6.00864e-05
6.00835e-05
6.00876e-05
6.00891e-05
6.00851e-05
6.00847e-05
6.00974e-05
6.01192e-05
6.01379e-05
6.01524e-05
6.01601e-05
6.01592e-05
6.01521e-05
6.01478e-05
6.0159e-05
6.01912e-05
6.02424e-05
6.0303e-05
6.03652e-05
6.04238e-05
6.04455e-05
6.03997e-05
6.03486e-05
6.04157e-05
6.06482e-05
6.10387e-05
6.0716e-05
0.000377424
0.00251324
0.00411478
0.00497679
0.00535932
0.00541323
0.0052471
0.00493799
0.00454255
0.00410573
0.00366388
0.00324605
0.00286569
0.00256
0.00223037
6.03187e-05
5.96161e-05
5.98707e-05
6.02025e-05
6.04447e-05
6.06162e-05
6.05462e-05
6.02325e-05
5.98121e-05
5.95323e-05
5.95609e-05
5.98513e-05
6.02064e-05
6.03932e-05
6.03817e-05
6.02113e-05
6.00399e-05
5.99699e-05
5.99855e-05
6.00442e-05
6.00898e-05
6.01065e-05
6.01001e-05
6.00913e-05
6.00912e-05
6.00951e-05
6.00934e-05
6.00879e-05
6.00915e-05
6.01098e-05
6.01313e-05
6.01519e-05
6.01686e-05
6.01776e-05
6.01769e-05
6.01698e-05
6.01669e-05
6.01789e-05
6.02113e-05
6.02636e-05
6.03304e-05
6.04086e-05
6.04698e-05
6.04703e-05
6.04348e-05
6.04675e-05
6.06264e-05
6.09249e-05
6.03751e-05
0.000182589
0.00198511
0.00386807
0.00488051
0.00536347
0.00548287
0.00535863
0.00507592
0.00469557
0.00426419
0.00381995
0.0033935
0.00300877
0.00267568
0.0024276
0.00216513
5.99435e-05
5.9755e-05
5.95179e-05
5.98122e-05
6.00436e-05
6.03965e-05
6.06167e-05
6.05781e-05
6.02453e-05
5.97991e-05
5.95184e-05
5.95709e-05
5.9895e-05
6.02692e-05
6.04319e-05
6.03932e-05
6.02015e-05
6.00279e-05
5.99653e-05
5.99902e-05
6.00534e-05
6.00982e-05
6.01109e-05
6.01039e-05
6.0098e-05
6.01004e-05
6.01024e-05
6.00967e-05
6.00925e-05
6.01028e-05
6.01219e-05
6.01436e-05
6.01659e-05
6.01849e-05
6.01968e-05
6.01985e-05
6.01932e-05
6.0191e-05
6.02019e-05
6.02334e-05
6.02881e-05
6.03684e-05
6.04554e-05
6.05026e-05
6.05049e-05
6.05346e-05
6.06408e-05
6.08305e-05
6.06279e-05
9.56323e-05
0.00141734
0.00357656
0.00475513
0.00534901
0.00554076
0.00546254
0.00520884
0.00484595
0.00442274
0.00397851
0.00354606
0.00315129
0.0028139
0.00254045
0.00235938
0.00216381
5.96771e-05
6.00592e-05
5.94728e-05
5.95762e-05
5.96401e-05
5.99636e-05
6.03491e-05
6.06243e-05
6.05922e-05
6.02333e-05
5.97622e-05
5.94899e-05
5.95747e-05
5.99487e-05
6.03315e-05
6.04699e-05
6.04033e-05
6.01911e-05
6.00142e-05
5.99606e-05
5.99963e-05
6.00637e-05
6.01059e-05
6.01154e-05
6.01097e-05
6.01075e-05
6.01108e-05
6.01085e-05
6.01012e-05
6.01028e-05
6.01153e-05
6.01328e-05
6.0155e-05
6.01795e-05
6.02033e-05
6.02201e-05
6.02253e-05
6.02231e-05
6.02223e-05
6.02324e-05
6.02636e-05
6.03264e-05
6.04148e-05
6.04897e-05
6.05296e-05
6.05779e-05
6.06625e-05
6.07607e-05
6.08042e-05
6.60242e-05
0.000890706
0.00322549
0.00459743
0.00531507
0.00558676
0.00555892
0.00533661
0.00499311
0.00458041
0.00413886
0.0037024
0.00329947
0.00295189
0.00267508
0.00247082
0.00235823
0.0022249
5.96013e-05
6.02904e-05
5.97293e-05
5.96165e-05
5.94755e-05
5.95749e-05
5.98958e-05
6.03259e-05
6.06319e-05
6.059e-05
6.01945e-05
5.9707e-05
5.94419e-05
5.95838e-05
6.00073e-05
6.03949e-05
6.05089e-05
6.04082e-05
6.01774e-05
5.99989e-05
5.99588e-05
6.00047e-05
6.00744e-05
6.01133e-05
6.01215e-05
6.01184e-05
6.01196e-05
6.01209e-05
6.01151e-05
6.01108e-05
6.01157e-05
6.01262e-05
6.01429e-05
6.01664e-05
6.01952e-05
6.02248e-05
6.02468e-05
6.02585e-05
6.02629e-05
6.02646e-05
6.02748e-05
6.03099e-05
6.03779e-05
6.04529e-05
6.05108e-05
6.05781e-05
6.06672e-05
6.07137e-05
6.08059e-05
5.91902e-05
0.000482649
0.00278754
0.00440105
0.00525996
0.00562093
0.00564834
0.00545974
0.00513693
0.00473643
0.00429998
0.00386202
0.00345242
0.00309585
0.0028097
0.00260368
0.00246989
0.00242257
0.00234602
5.9706e-05
6.02897e-05
6.00915e-05
5.98677e-05
5.96346e-05
5.94576e-05
5.95287e-05
5.98551e-05
6.03215e-05
6.06417e-05
6.05743e-05
6.01436e-05
5.9628e-05
5.93891e-05
5.96032e-05
6.00692e-05
6.04623e-05
6.05404e-05
6.04092e-05
6.01608e-05
5.99863e-05
5.99594e-05
6.0015e-05
6.00851e-05
6.01218e-05
6.01297e-05
6.01303e-05
6.01328e-05
6.01307e-05
6.01244e-05
6.01241e-05
6.01283e-05
6.01372e-05
6.01543e-05
6.01796e-05
6.02125e-05
6.02476e-05
6.02783e-05
6.03011e-05
6.03129e-05
6.03177e-05
6.03317e-05
6.03725e-05
6.0429e-05
6.0481e-05
6.0551e-05
6.06534e-05
6.06918e-05
6.0723e-05
5.90045e-05
0.000228201
0.00224546
0.00415747
0.00517997
0.00564303
0.00573176
0.00557933
0.00527801
0.0048905
0.00446088
0.0040239
0.00360989
0.0032453
0.0029505
0.0027367
0.00260307
0.00253611
0.00254966
0.00251885
5.99233e-05
6.01003e-05
6.03257e-05
6.01382e-05
5.99956e-05
5.9663e-05
5.94615e-05
5.94958e-05
5.98402e-05
6.03367e-05
6.06598e-05
6.05592e-05
6.00805e-05
5.95336e-05
5.93478e-05
5.96278e-05
6.01374e-05
6.05246e-05
6.05699e-05
6.04065e-05
6.01435e-05
5.99745e-05
5.99625e-05
6.00263e-05
6.00964e-05
6.01309e-05
6.01408e-05
6.01449e-05
6.01458e-05
6.01406e-05
6.01378e-05
6.01393e-05
6.01422e-05
6.01509e-05
6.01669e-05
6.01929e-05
6.02299e-05
6.02726e-05
6.03152e-05
6.03489e-05
6.03674e-05
6.03793e-05
6.04047e-05
6.04437e-05
6.04797e-05
6.05351e-05
6.0642e-05
6.0701e-05
6.06692e-05
5.99373e-05
0.000107048
0.0016285
0.00385642
0.00506836
0.00565138
0.00581005
0.00569704
0.00541777
0.00504312
0.00462101
0.00418689
0.00377092
0.00340022
0.00309724
0.00287605
0.00273659
0.00267173