/*--------------------------------*- C++ -*----------------------------------*\
  =========                 |
  \\      /  F ield         | OpenFOAM: The Open Source CFD Toolbox
   \\    /   O peration     | Website:  https://openfoam.org
    \\  /    A nd           | Version:  dev
     \\/     M anipulation  |
\*---------------------------------------------------------------------------*/
FoamFile
{
    version     2.0;
    format      ascii;
    class       surfaceScalarField;
    location    "150";
    object      phi;
}
// * * * * * * * * * * * * * * * * * * * * * * * * * * * * * * * * * * * * * //

dimensions      [0 3 -1 0 0 0 0];

internalField   nonuniform List<scalar> 
58294
(
-0.473104
4.28459e-05
-0.473094
4.38281e-05
-0.429873
2.74689e-05
-0.473086
4.35752e-05
-0.42986
3.13331e-05
-0.389982
1.8395e-05
-0.473079
4.44905e-05
-0.429849
3.2471e-05
-0.389972
2.10638e-05
-0.354093
4.20797e-06
-0.473074
4.5457e-05
-0.429839
3.40028e-05
-0.389962
2.2503e-05
-0.354081
9.63106e-06
-0.321315
-3.99013e-06
-0.47307
4.63816e-05
-0.429829
3.53417e-05
-0.389953
2.47911e-05
-0.354071
1.23784e-05
-0.321305
4.42486e-07
-0.291629
-1.44614e-05
-0.473067
4.71457e-05
-0.429819
3.65648e-05
-0.389944
2.68706e-05
-0.354062
1.52492e-05
-0.321296
3.41909e-06
-0.29162
-8.38486e-06
-0.264649
-2.1605e-05
-0.473065
4.76594e-05
-0.429809
3.74971e-05
-0.389936
2.8718e-05
-0.354053
1.78393e-05
-0.321288
6.89968e-06
-0.291612
-4.58384e-06
-0.264642
-1.57782e-05
-0.240171
-2.89396e-05
-0.473064
4.79212e-05
-0.429799
3.81673e-05
-0.389929
3.02459e-05
-0.354044
2.01043e-05
-0.32128
9.99662e-06
-0.291605
-6.58296e-07
-0.264634
-1.16297e-05
-0.240164
-2.22916e-05
-0.217943
-3.45658e-05
-0.473064
4.79069e-05
-0.42979
3.8498e-05
-0.389922
3.13983e-05
-0.354036
2.20099e-05
-0.321273
1.28106e-05
-0.291598
2.97727e-06
-0.264628
-7.2123e-06
-0.240158
-1.76469e-05
-0.217938
-2.77862e-05
-0.197773
-3.95582e-05
-0.473065
4.76456e-05
-0.429781
3.85555e-05
-0.389916
3.21918e-05
-0.354028
2.34774e-05
-0.321266
1.51583e-05
-0.291591
6.23077e-06
-0.264622
-3.17333e-06
-0.240153
-1.29019e-05
-0.217933
-2.27849e-05
-0.197768
-3.2362e-05
-0.179467
-4.34791e-05
-0.473066
4.71431e-05
-0.429771
3.83136e-05
-0.38991
3.2615e-05
-0.35402
2.45427e-05
-0.32126
1.71003e-05
-0.291585
9.11651e-06
-0.264616
6.16783e-07
-0.240147
-8.39963e-06
-0.217928
-1.76908e-05
-0.197764
-2.70564e-05
-0.179463
-3.61228e-05
-0.162852
-4.65456e-05
-0.473069
4.64373e-05
-0.429762
3.7846e-05
-0.389904
3.27223e-05
-0.354013
2.51849e-05
-0.321254
1.85297e-05
-0.291579
1.14898e-05
-0.264611
3.9647e-06
-0.240143
-4.22228e-06
-0.217923
-1.29211e-05
-0.19776
-2.17649e-05
-0.17946
-3.05386e-05
-0.162849
-3.90183e-05
-0.147777
-4.87807e-05
-0.473072
4.55395e-05
-0.429753
3.71531e-05
-0.389899
3.2528e-05
-0.354005
2.54677e-05
-0.321248
1.95436e-05
-0.291574
1.34217e-05
-0.264606
6.92532e-06
-0.240138
-3.10571e-07
-0.217919
-8.29281e-06
-0.197756
-1.66576e-05
-0.179456
-2.5053e-05
-0.162846
-3.33035e-05
-0.147774
-4.12458e-05
-0.134097
-5.02075e-05
-0.473075
4.44895e-05
-0.429744
3.62953e-05
-0.389894
3.20986e-05
-0.353998
2.54111e-05
-0.321243
2.00918e-05
-0.29157
1.48149e-05
-0.264602
9.34951e-06
-0.240135
3.15735e-06
-0.217916
-3.98521e-06
-0.197752
-1.1784e-05
-0.179453
-1.98364e-05
-0.162844
-2.77744e-05
-0.147772
-3.53942e-05
-0.134095
-4.27138e-05
-0.12168
-5.0957e-05
-0.473079
4.32967e-05
-0.429734
3.52878e-05
-0.389889
3.14537e-05
-0.353991
2.50858e-05
-0.321238
2.02866e-05
-0.291565
1.5769e-05
-0.264599
1.13017e-05
-0.240131
6.21429e-06
-0.217913
6.65064e-08
-0.197749
-7.0129e-06
-0.17945
-1.46526e-05
-0.162841
-2.23674e-05
-0.14777
-2.9847e-05
-0.134094
-3.69068e-05
-0.121679
-4.36449e-05
-0.110413
-5.10195e-05
-0.473084
4.19943e-05
-0.429725
3.41726e-05
-0.389885
3.0657e-05
-0.353984
2.45273e-05
-0.321233
2.01246e-05
-0.291561
1.62459e-05
-0.264596
1.27035e-05
-0.240129
8.75287e-06
-0.21791
3.7159e-06
-0.197747
-2.50974e-06
-0.179448
-9.63394e-06
-0.162839
-1.71042e-05
-0.147768
-2.44956e-05
-0.134092
-3.14816e-05
-0.121678
-3.78253e-05
-0.110413
-4.39358e-05
-0.100191
-5.05283e-05
-0.473089
4.05951e-05
-0.429716
3.29658e-05
-0.38988
2.97243e-05
-0.353978
2.3801e-05
-0.321228
1.97115e-05
-0.291557
1.636e-05
-0.264593
1.36378e-05
-0.240127
1.07685e-05
-0.217908
6.90738e-06
-0.197745
1.73391e-06
-0.179446
-4.67659e-06
-0.162837
-1.17924e-05
-0.147766
-1.90832e-05
-0.13409
-2.61021e-05
-0.121677
-3.25518e-05
-0.110413
-3.83047e-05
-0.100191
-4.38293e-05
-0.0909137
-4.94463e-05
-0.473094
3.91236e-05
-0.429707
3.17001e-05
-0.389876
2.87054e-05
-0.353971
2.29411e-05
-0.321223
1.90708e-05
-0.291554
1.61149e-05
-0.264591
1.40826e-05
-0.240126
1.22406e-05
-0.217907
9.6182e-06
-0.197744
5.63485e-06
-0.179444
8.89314e-08
-0.162835
-6.56292e-06
-0.147764
-1.36969e-05
-0.134089
-2.07711e-05
-0.121675
-2.73908e-05
-0.110412
-3.32708e-05
-0.100191
-3.82864e-05
-0.0909143
-4.31788e-05
-0.082496
-4.78964e-05
-0.4731
3.75915e-05
-0.429699
3.03874e-05
-0.389872
2.76143e-05
-0.353964
2.19966e-05
-0.321218
1.82869e-05
-0.29155
1.56235e-05
-0.264589
1.41423e-05
-0.240125
1.31987e-05
-0.217907
1.17531e-05
-0.197743
9.04302e-06
-0.179443
4.58409e-06
-0.162833
-1.36168e-06
-0.147762
-8.19667e-06
-0.134087
-1.52673e-05
-0.121674
-2.20749e-05
-0.110411
-2.82249e-05
-0.10019
-3.35073e-05
-0.0909147
-3.79758e-05
-0.082497
-4.22434e-05
-0.0748504
-4.58801e-05
-0.473106
3.60198e-05
-0.42969
2.90496e-05
-0.389868
2.64845e-05
-0.353958
2.09959e-05
-0.321214
1.73889e-05
-0.291547
1.49112e-05
-0.264587
1.38368e-05
-0.240124
1.36598e-05
-0.217907
1.33488e-05
-0.197743
1.19775e-05
-0.179443
8.77443e-06
-0.162832
3.7264e-06
-0.147761
-2.67951e-06
-0.134086
-9.68956e-06
-0.121673
-1.66591e-05
-0.11041
-2.3136e-05
-0.10019
-2.87869e-05
-0.0909148
-3.34862e-05
-0.0824977
-3.72401e-05
-0.0748518
-4.07959e-05
-0.0679208
-4.34932e-05
-0.473112
3.44144e-05
-0.429682
2.76976e-05
-0.389864
2.53251e-05
-0.353951
1.99704e-05
-0.321209
1.64381e-05
-0.291544
1.40711e-05
-0.264586
1.32717e-05
-0.240124
1.36978e-05
-0.217908
1.43706e-05
-0.197744
1.43006e-05
-0.179443
1.2466e-05
-0.162832
8.54114e-06
-0.14776
2.82406e-06
-0.134084
-3.94009e-06
-0.121671
-1.09975e-05
-0.110409
-1.77736e-05
-0.100189
-2.38494e-05
-0.0909146
-2.89677e-05
-0.0824981
-3.30706e-05
-0.0748528
-3.63212e-05
-0.0679225
-3.91835e-05
-0.0616254
-4.08437e-05
-0.473118
3.28017e-05
-0.429674
2.63425e-05
-0.389861
2.41592e-05
-0.353945
1.89383e-05
-0.321205
1.54567e-05
-0.291541
1.3134e-05
-0.264584
1.24873e-05
-0.240124
1.33576e-05
-0.217909
1.48865e-05
-0.197746
1.60619e-05
-0.179445
1.56674e-05
-0.162833
1.30686e-05
-0.14776
8.27807e-06
-0.134083
1.92031e-06
-0.12167
-5.15153e-06
-0.110408
-1.22053e-05
-0.100188
-1.87097e-05
-0.0909141
-2.43392e-05
-0.0824981
-2.89287e-05
-0.0748535
-3.2461e-05
-0.0679238
-3.5017e-05
-0.0616274
-3.70993e-05
-0.0559181
-3.7935e-05
-0.473124
3.11802e-05
-0.429666
2.50008e-05
-0.389857
2.29893e-05
-0.353938
1.79184e-05
-0.3212
1.44821e-05
-0.291537
1.21653e-05
-0.264582
1.15749e-05
-0.240124
1.27319e-05
-0.21791
1.49189e-05
-0.197748
1.71981e-05
-0.179447
1.82306e-05
-0.162834
1.70952e-05
-0.14776
1.34731e-05
-0.134083
7.78438e-06
-0.121669
8.95441e-07
-0.110407
-6.32623e-06
-0.100187
-1.32305e-05
-0.0909134
-1.93823e-05
-0.0824979
-2.45297e-05
-0.0748538
-2.85813e-05
-0.0679247
-3.15232e-05
-0.0616288
-3.36253e-05
-0.0559203
-3.5007e-05
-0.0507387
-3.50316e-05
-0.47313
2.95685e-05
-0.429658
2.36733e-05
-0.389854
2.18364e-05
-0.353932
1.69182e-05
-0.321196
1.35286e-05
-0.291534
1.1188e-05
-0.264581
1.05747e-05
-0.240125
1.18789e-05
-0.217912
1.4558e-05
-0.197751
1.77901e-05
-0.17945
2.01922e-05
-0.162837
2.06101e-05
-0.147762
1.83848e-05
-0.134083
1.36372e-05
-0.121669
7.13453e-06
-0.110406
-1.72047e-07
-0.100186
-7.44472e-06
-0.0909125
-1.4126e-05
-0.0824974
-1.98724e-05
-0.0748538
-2.45292e-05
-0.0679252
-2.80506e-05
-0.06163
-3.04406e-05
-0.055922
-3.1874e-05
-0.0507411
-3.2514e-05
-0.0460357
-3.19922e-05
-0.473136
2.79774e-05
-0.429651
2.2371e-05
-0.389851
2.06969e-05
-0.353926
1.59526e-05
-0.321192
1.26135e-05
-0.291531
1.02418e-05
-0.264579
9.55194e-06
-0.240125
1.08846e-05
-0.217914
1.38633e-05
-0.197754
1.78414e-05
-0.179453
2.14771e-05
-0.16284
2.34595e-05
-0.147764
2.27935e-05
-0.134084
1.92546e-05
-0.121668
1.34099e-05
-0.110405
6.21919e-06
-0.100185
-1.31937e-06
-0.0909114
-8.47803e-06
-0.0824967
-1.48332e-05
-0.0748535
-2.0137e-05
-0.0679255
-2.42814e-05
-0.0616307
-2.72718e-05
-0.0559234
-2.90909e-05
-0.050743
-3.01364e-05
-0.0460382
-3.02082e-05
-0.0417702
-2.92196e-05
-0.473141
2.64104e-05
-0.429644
2.11026e-05
-0.389848
1.95833e-05
-0.353921
1.50199e-05
-0.321187
1.17466e-05
-0.291527
9.33763e-06
-0.264578
8.53614e-06
-0.240125
9.80122e-06
-0.217916
1.29271e-05
-0.197758
1.74587e-05
-0.179458
2.21611e-05
-0.162844
2.56485e-05
-0.147767
2.66552e-05
-0.134086
2.45801e-05
-0.121669
1.96947e-05
-0.110404
1.28595e-05
-0.100184
5.16656e-06
-0.0909103
-2.46258e-06
-0.0824957
-9.41022e-06
-0.0748529
-1.53877e-05
-0.0679254
-2.02246e-05
-0.0616311
-2.386e-05
-0.0559243
-2.63531e-05
-0.0507445
-2.76385e-05
-0.0460402
-2.80729e-05
-0.0417727
-2.76073e-05
-0.0378999
-2.63996e-05
-0.473147
2.48791e-05
-0.429638
1.98675e-05
-0.389846
1.84997e-05
-0.353915
1.41272e-05
-0.321183
1.09311e-05
-0.291524
8.49762e-06
-0.264576
7.56519e-06
-0.240126
8.69419e-06
-0.217918
1.18173e-05
-0.197762
1.66906e-05
-0.179463
2.22447e-05
-0.162849
2.71134e-05
-0.147771
2.98291e-05
-0.134088
2.94211e-05
-0.12167
2.57716e-05
-0.110404
1.95754e-05
-0.100183
1.19417e-05
-0.090909
3.94242e-06
-0.0824946
-3.59129e-06
-0.0748521
-1.02098e-05
-0.067925
-1.57714e-05
-0.0616312
-2.01171e-05
-0.0559249
-2.32494e-05
-0.0507456
-2.52407e-05
-0.0460418
-2.59671e-05
-0.0417747
-2.61713e-05
-0.0379023
-2.53818e-05
-0.0343873
-2.40494e-05
-0.473153
2.339e-05
-0.429632
1.86737e-05
-0.389843
1.74471e-05
-0.35391
1.32767e-05
-0.321179
1.01698e-05
-0.291521
7.72195e-06
-0.264574
6.65684e-06
-0.240126
7.59887e-06
-0.21792
1.06119e-05
-0.197766
1.5646e-05
-0.179468
2.18339e-05
-0.162855
2.79038e-05
-0.147776
3.22719e-05
-0.134092
3.36548e-05
-0.121672
3.15431e-05
-0.110404
2.63169e-05
-0.100182
1.89998e-05
-0.0909078
1.07727e-05
-0.0824933
2.66598e-06
-0.0748511
-4.6415e-06
-0.0679243
-1.08772e-05
-0.061631
-1.59929e-05
-0.0559251
-1.98432e-05
-0.0507463
-2.24947e-05
-0.0460431
-2.40203e-05
-0.0417765
-2.42719e-05
-0.0379043
-2.40019e-05
-0.0343895
-2.2979e-05
-0.0312004
-2.17127e-05
-0.473158
2.19478e-05
-0.429626
1.75238e-05
-0.389841
1.64301e-05
-0.353905
1.2466e-05
-0.321176
9.46397e-06
-0.291518
7.01782e-06
-0.264572
5.82619e-06
-0.240125
6.5575e-06
-0.217922
9.36587e-06
-0.197769
1.43908e-05
-0.179473
2.09802e-05
-0.162861
2.80306e-05
-0.147782
3.39415e-05
-0.134097
3.71946e-05
-0.121675
3.68457e-05
-0.110406
3.2892e-05
-0.100182
2.61767e-05
-0.0909068
1.7946e-05
-0.0824919
9.38232e-06
-0.0748497
1.37239e-06
-0.0679233
-5.58924e-06
-0.0616304
-1.14073e-05
-0.055925
-1.60668e-05
-0.0507467
-1.94218e-05
-0.0460439
-2.16023e-05
-0.0417778
-2.26617e-05
-0.0379061
-2.24223e-05
-0.0343916
-2.21286e-05
-0.0312024
-2.10917e-05
-0.0283095
-1.99811e-05
-0.473163
2.05607e-05
-0.42962
1.64198e-05
-0.389839
1.54512e-05
-0.3539
1.1697e-05
-0.321172
8.80939e-06
-0.291515
6.38343e-06
-0.26457
5.07857e-06
-0.240125
5.5866e-06
-0.217924
8.13575e-06
-0.197773
1.30158e-05
-0.179478
1.98005e-05
-0.162867
2.7588e-05
-0.147789
3.48521e-05
-0.134103
3.99236e-05
-0.12168
4.15005e-05
-0.110408
3.91435e-05
-0.100183
3.3398e-05
-0.090906
2.54375e-05
-0.0824905
1.65725e-05
-0.0748482
7.88682e-06
-0.067922
1.22369e-07
-0.0616296
-6.43617e-06
-0.0559246
-1.17956e-05
-0.0507468
-1.5986e-05
-0.0460445
-1.88514e-05
-0.0417788
-2.06001e-05
-0.0379075
-2.12632e-05
-0.0343934
-2.0635e-05
-0.0312044
-2.00518e-05
-0.0283112
-1.91563e-05
-0.0256865
-1.82883e-05
-0.473168
1.92233e-05
-0.429615
1.53661e-05
-0.389837
1.45111e-05
-0.353896
1.09686e-05
-0.321169
8.2048e-06
-0.291512
5.81527e-06
-0.264568
4.4179e-06
-0.240125
4.70584e-06
-0.217925
6.95468e-06
-0.197777
1.15838e-05
-0.179484
1.83646e-05
-0.162874
2.66413e-05
-0.147797
3.50302e-05
-0.13411
4.18313e-05
-0.121685
4.54288e-05
-0.110412
4.49388e-05
-0.100184
4.04948e-05
-0.0909057
3.3106e-05
-0.0824892
2.41581e-05
-0.0748466
1.49208e-05
-0.0679205
6.35186e-06
-0.0616284
-1.03535e-06
-0.0559239
-7.14111e-06
-0.0507465
-1.20653e-05
-0.0460447
-1.57901e-05
-0.0417795
-1.81806e-05
-0.0379086
-1.95354e-05
-0.0343949
-1.97784e-05
-0.0312062
-1.87517e-05
-0.028313
-1.84309e-05
-0.0256879
-1.7831e-05
-0.0233073
-1.72118e-05
-0.473173
1.79455e-05
-0.42961
1.43567e-05
-0.389836
1.3613e-05
-0.353892
1.02792e-05
-0.321165
7.64688e-06
-0.291509
5.30942e-06
-0.264566
3.83978e-06
-0.240124
3.92065e-06
-0.217926
5.85385e-06
-0.19778
1.01561e-05
-0.179489
1.67814e-05
-0.162881
2.53024e-05
-0.147805
3.45561e-05
-0.134118
4.28817e-05
-0.121692
4.84849e-05
-0.110416
5.00609e-05
-0.100186
4.72741e-05
-0.0909061
4.0831e-05
-0.0824882
3.20996e-05
-0.0748449
2.24794e-05
-0.0679187
1.31275e-05
-0.0616268
4.82461e-06
-0.0559228
-2.11722e-06
-0.0507459
-7.76119e-06
-0.0460445
-1.22028e-05
-0.0417798
-1.54426e-05
-0.0379093
-1.74012e-05
-0.034396
-1.84184e-05
-0.0312077
-1.8326e-05
-0.0283148
-1.70502e-05
-0.0256895
-1.67245e-05
-0.0233084
-1.65711e-05
-0.021148
-1.61096e-05
-0.473177
1.67271e-05
-0.429606
1.33979e-05
-0.389834
1.27516e-05
-0.353888
9.62907e-06
-0.321162
7.13145e-06
-0.291506
4.86044e-06
-0.264564
3.34084e-06
-0.240124
3.23343e-06
-0.217927
4.85033e-06
-0.197783
8.77455e-06
-0.179494
1.51115e-05
-0.162888
2.36662e-05
-0.147813
3.35043e-05
-0.134127
4.31336e-05
-0.1217
5.0651e-05
-0.110422
5.44155e-05
-0.10019
5.35953e-05
-0.0909073
4.84829e-05
-0.0824876
4.02736e-05
-0.0748432
3.04882e-05
-0.0679167
2.04882e-05
-0.061625
1.12634e-05
-0.0559213
3.39279e-06
-0.0507449
-3.05712e-06
-0.046044
-8.23763e-06
-0.0417797
-1.22302e-05
-0.0379097
-1.50276e-05
-0.0343967
-1.66094e-05
-0.0312088
-1.7306e-05
-0.0283162
-1.68306e-05
-0.0256911
-1.53517e-05
-0.0233097
-1.55932e-05
-0.0211487
-1.58719e-05
-0.0191899
-1.55544e-05
-0.473181
1.55693e-05
-0.429602
1.24881e-05
-0.389833
1.1932e-05
-0.353884
9.01236e-06
-0.321159
6.65637e-06
-0.291504
4.46242e-06
-0.264562
2.91419e-06
-0.240123
2.64142e-06
-0.217928
3.95352e-06
-0.197785
7.47755e-06
-0.179499
1.34338e-05
-0.162895
2.18328e-05
-0.147821
3.19995e-05
-0.134136
4.2627e-05
-0.121708
5.1873e-05
-0.110429
5.78348e-05
-0.100195
5.92299e-05
-0.0909095
5.58357e-05
-0.0824877
4.85417e-05
-0.0748419
3.88786e-05
-0.0679146
2.84129e-05
-0.0616228
1.83137e-05
-0.0559195
9.39247e-06
-0.0507435
2.01633e-06
-0.0460431
-3.94271e-06
-0.0417793
-8.64303e-06
-0.0379098
-1.21375e-05
-0.0343972
-1.45141e-05
-0.0312096
-1.57771e-05
-0.0283173
-1.61953e-05
-0.0256925
-1.54622e-05
-0.0233111
-1.39727e-05
-0.0211497
-1.44531e-05
-0.0191904
-1.52533e-05
-0.0174131
-1.49165e-05
-0.473185
1.44748e-05
-0.429598
1.16272e-05
-0.389831
1.11527e-05
-0.353881
8.43116e-06
-0.321156
6.21477e-06
-0.291501
4.11001e-06
-0.264561
2.55236e-06
-0.240122
2.13953e-06
-0.217928
3.16679e-06
-0.197788
6.28261e-06
-0.179503
1.1796e-05
-0.162901
1.98868e-05
-0.14783
3.01318e-05
-0.134145
4.14846e-05
-0.121718
5.22026e-05
-0.110438
6.02912e-05
-0.100201
6.40458e-05
-0.090913
6.27288e-05
-0.0824886
5.67779e-05
-0.0748409
4.75816e-05
-0.0679125
3.6844e-05
-0.0616203
2.6001e-05
-0.0559172
1.60539e-05
-0.0507417
7.61294e-06
-0.0460418
7.89235e-07
-0.0417786
-4.68068e-06
-0.0379095
-8.90133e-06
-0.0343974
-1.19833e-05
-0.03121
-1.40265e-05
-0.0283181
-1.50086e-05
-0.0256935
-1.51297e-05
-0.0233124
-1.41152e-05
-0.0211509
-1.26919e-05
-0.019191
-1.39016e-05
-0.0174133
-1.50805e-05
-0.0158017
-1.48042e-05
-0.473189
1.34358e-05
-0.429594
1.08163e-05
-0.38983
1.04133e-05
-0.353877
7.88295e-06
-0.321154
5.8063e-06
-0.291499
3.79609e-06
-0.264559
2.24813e-06
-0.240122
1.71988e-06
-0.217929
2.48855e-06
-0.19779
5.20638e-06
-0.179507
1.02402e-05
-0.162908
1.79126e-05
-0.147838
2.80225e-05
-0.134155
3.97912e-05
-0.121728
5.16934e-05
-0.110447
6.17033e-05
-0.100209
6.78696e-05
-0.0909179
6.89109e-05
-0.0824907
6.47494e-05
-0.0748405
5.64404e-05
-0.0679107
4.57148e-05
-0.0616178
3.42802e-05
-0.0559145
2.33744e-05
-0.0507394
1.37805e-05
-0.0460401
5.87951e-06
-0.0417774
-4.0717e-07
-0.0379088
-5.3822e-06
-0.0343972
-9.11651e-06
-0.0312102
-1.17652e-05
-0.0283186
-1.35032e-05
-0.0256943
-1.42436e-05
-0.0233134
-1.41329e-05
-0.021152
-1.30168e-05
-0.019192
-1.18114e-05
-0.0174136
-1.33811e-05
-0.0158016
-1.50224e-05
-0.0143399
-1.45839e-05
-0.473193
1.24558e-05
-0.429591
1.00484e-05
-0.389829
9.71505e-06
-0.353874
7.36626e-06
-0.321151
5.42688e-06
-0.291496
3.51676e-06
-0.264557
1.99267e-06
-0.240121
1.37424e-06
-0.217929
1.91279e-06
-0.197791
4.25229e-06
-0.179511
8.79294e-06
-0.162913
1.59639e-05
-0.147846
2.57672e-05
-0.134165
3.76828e-05
-0.121739
5.04463e-05
-0.110458
6.21466e-05
-0.100217
7.06325e-05
-0.0909242
7.4229e-05
-0.082494
7.22494e-05
-0.0748411
6.53127e-05
-0.0679092
5.49806e-05
-0.0616152
4.31549e-05
-0.0559116
3.13724e-05
-0.0507367
2.06582e-05
-0.0460379
1.15929e-05
-0.0417757
4.29358e-06
-0.0379077
-1.44389e-06
-0.0343966
-5.94537e-06
-0.0312101
-9.21294e-06
-0.0283188
-1.15634e-05
-0.0256947
-1.30846e-05
-0.0233141
-1.35797e-05
-0.0211529
-1.32253e-05
-0.0191929
-1.20026e-05
-0.0174143
-1.10967e-05
-0.0158016
-1.33997e-05
-0.0143395
-1.53188e-05
-0.0130137
-1.48013e-05
-0.473196
1.15407e-05
-0.429588
9.32573e-06
-0.389828
9.05187e-06
-0.353872
6.88091e-06
-0.321149
5.07427e-06
-0.291494
3.2673e-06
-0.264555
1.78003e-06
-0.24012
1.09311e-06
-0.217929
1.43215e-06
-0.197793
3.42065e-06
-0.179514
7.4736e-06
-0.162919
1.4095e-05
-0.147853
2.34519e-05
-0.134174
3.5275e-05
-0.12175
4.85714e-05
-0.110469
6.16321e-05
-0.100228
7.22829e-05
-0.0909321
7.84738e-05
-0.0824988
7.90231e-05
-0.0748428
7.39465e-05
-0.0679084
6.44873e-05
-0.0616128
5.25618e-05
-0.0559085
4.00301e-05
-0.0507335
2.82228e-05
-0.0460351
1.79258e-05
-0.0417736
9.44222e-06
-0.0379062
2.72959e-06
-0.0343956
-2.47653e-06
-0.0312096
-6.48469e-06
-0.0283187
-9.31932e-06
-0.0256949
-1.13702e-05
-0.0233144
-1.26744e-05
-0.0211535
-1.29776e-05
-0.0191937
-1.24711e-05
-0.017415
-1.13185e-05
-0.0158019
-1.08102e-05
-0.0143392
-1.34949e-05
-0.0130131
-1.57102e-05
-0.0118107
-1.47019e-05
-0.473199
1.0673e-05
-0.429585
8.65224e-06
-0.389827
8.42586e-06
-0.353869
6.42175e-06
-0.321147
4.74659e-06
-0.291492
3.04325e-06
-0.264553
1.60305e-06
-0.240119
8.68176e-07
-0.217929
1.03645e-06
-0.197794
2.70604e-06
-0.179517
6.28845e-06
-0.162923
1.23378e-05
-0.14786
2.11495e-05
-0.134183
3.26759e-05
-0.121761
4.62155e-05
-0.110481
6.02963e-05
-0.100239
7.28372e-05
-0.0909414
8.15949e-05
-0.0825051
8.48551e-05
-0.0748458
8.20992e-05
-0.0679084
7.40428e-05
-0.0616107
6.24549e-05
-0.0559053
4.93916e-05
-0.05073
3.6545e-05
-0.0460319
2.49897e-05
-0.0417709
1.52639e-05
-0.0379041
7.44558e-06
-0.0343941
1.33795e-06
-0.0312086
-3.35184e-06
-0.0283182
-6.92397e-06
-0.0256948
-9.37277e-06
-0.0233145
-1.12711e-05
-0.0211538
-1.24316e-05
-0.0191941
-1.24995e-05
-0.0174156
-1.18226e-05
-0.0158024
-1.07698e-05
-0.0143392
-1.07678e-05
-0.0130126
-1.40488e-05
-0.0118101
-1.62267e-05
-0.0107194
-1.4817e-05
-0.473202
9.86969e-06
-0.429582
8.014e-06
-0.389826
7.84057e-06
-0.353866
5.9896e-06
-0.321145
4.43952e-06
-0.29149
2.8419e-06
-0.264552
1.45618e-06
-0.240118
6.91073e-07
-0.217929
7.16757e-07
-0.197795
2.09979e-06
-0.179519
5.24084e-06
-0.162928
1.0716e-05
-0.147867
1.89197e-05
-0.134192
2.99869e-05
-0.121771
4.34883e-05
-0.110493
5.8249e-05
-0.100251
7.23476e-05
-0.090952
8.34834e-05
-0.0825131
8.95802e-05
-0.0748505
8.94817e-05
-0.0679097
8.33889e-05
-0.0616094
7.26642e-05
-0.0559022
5.9408e-05
-0.0507263
4.56376e-05
-0.0460282
3.28189e-05
-0.0417676
2.1742e-05
-0.0379015
1.26563e-05
-0.0343921
5.47726e-06
-0.0312073
-6.13872e-08
-0.0283173
-4.24897e-06
-0.0256943
-7.37992e-06
-0.0233144
-9.51296e-06
-0.0211538
-1.12459e-05
-0.0191943
-1.22351e-05
-0.017416
-1.21234e-05
-0.0158028
-1.14084e-05
-0.0143393
-1.06462e-05
-0.0130122
-1.1154e-05
-0.0118094
-1.46088e-05
-0.0107189
-1.66247e-05
-0.00972876
-1.44425e-05
-0.473205
9.11188e-06
-0.42958
7.424e-06
-0.389825
7.28409e-06
-0.353864
5.58662e-06
-0.321143
4.1524e-06
-0.291489
2.65828e-06
-0.26455
1.33421e-06
-0.240117
5.5389e-07
-0.217929
4.62844e-07
-0.197796
1.59298e-06
-0.179521
4.32385e-06
-0.162932
9.24241e-06
-0.147873
1.68017e-05
-0.134201
2.72934e-05
-0.121782
4.0529e-05
-0.110505
5.56321e-05
-0.100264
7.09419e-05
-0.0909639
8.41859e-05
-0.0825227
9.30522e-05
-0.0748568
9.5883e-05
-0.0679125
9.22092e-05
-0.0616089
8.29563e-05
-0.0558996
6.99947e-05
-0.0507224
5.55597e-05
-0.046024
4.15143e-05
-0.0417638
2.90221e-05
-0.0378983
1.85503e-05
-0.0343896
1.01982e-05
-0.0312054
3.68768e-06
-0.028316
-1.3056e-06
-0.0256935
-5.03614e-06
-0.023314
-7.8078e-06
-0.0211536
-9.67157e-06
-0.0191941
-1.13785e-05
-0.017416
-1.22091e-05
-0.0158031
-1.18642e-05
-0.0143395
-1.11688e-05
-0.013012
-1.07633e-05
-0.0118087
-1.17616e-05
-0.0107181
-1.53425e-05
-0.00972835
-1.6897e-05
-0.00882884
-1.42582e-05
-0.473208
8.40551e-06
-0.429577
6.86719e-06
-0.389825
6.76796e-06
-0.353862
5.20365e-06
-0.321141
3.88622e-06
-0.291487
2.49099e-06
-0.264549
1.23222e-06
-0.240116
4.5001e-07
-0.217928
2.65426e-07
-0.197797
1.17493e-06
-0.179523
3.53276e-06
-0.162935
7.91794e-06
-0.147878
1.48286e-05
-0.134208
2.46598e-05
-0.121792
3.74421e-05
-0.110517
5.25844e-05
-0.100277
6.87206e-05
-0.0909767
8.3749e-05
-0.0825338
9.52219e-05
-0.0748648
0.000101078
-0.0679168
0.000100251
-0.0616097
9.30228e-05
-0.0558976
8.097e-05
-0.0507187
6.62682e-05
-0.0460196
5.11188e-05
-0.0417595
3.71635e-05
-0.0378945
2.52131e-05
-0.0343865
1.54613e-05
-0.031203
7.78796e-06
-0.0283142
1.88128e-06
-0.0256922
-2.61063e-06
-0.0233131
-5.8866e-06
-0.0211531
-8.30073e-06
-0.0191939
-9.99656e-06
-0.0174157
-1.16e-05
-0.015803
-1.2226e-05
-0.0143396
-1.17745e-05
-0.0130119
-1.12799e-05
-0.0118082
-1.12871e-05
-0.0107172
-1.25584e-05
-0.00972761
-1.58826e-05
-0.00882861
-1.69694e-05
-0.00801247
-1.35575e-05
-0.47321
7.74989e-06
-0.429575
6.34822e-06
-0.389824
6.27919e-06
-0.35386
4.84892e-06
-0.32114
3.63384e-06
-0.291485
2.33894e-06
-0.264548
1.14664e-06
-0.240115
3.72839e-07
-0.217928
1.15603e-07
-0.197797
8.3482e-07
-0.179525
2.85704e-06
-0.162939
6.74385e-06
-0.147884
1.30098e-05
-0.134216
2.21418e-05
-0.121802
3.43266e-05
-0.110529
4.92518e-05
-0.10029
6.58553e-05
-0.0909902
8.22772e-05
-0.0825461
9.61009e-05
-0.0748745
0.000104939
-0.067923
0.000107207
-0.061612
0.000102564
-0.0558966
9.20191e-05
-0.0507153
7.76293e-05
-0.046015
6.16977e-05
-0.0417547
4.63124e-05
-0.0378901
3.27623e-05
-0.0343828
2.14829e-05
-0.0312
1.24522e-05
-0.0283119
5.54754e-06
-0.0256905
2.29126e-07
-0.0233119
-3.80904e-06
-0.0211523
-6.67812e-06
-0.0191933
-8.83323e-06
-0.0174153
-1.03709e-05
-0.0158027
-1.19773e-05
-0.0143394
-1.24094e-05
-0.0130118
-1.18744e-05
-0.0118078
-1.16356e-05
-0.0107165
-1.19737e-05
-0.00972675
-1.33683e-05
-0.00882799
-1.63843e-05
-0.00801241
-1.68772e-05
-0.00726977
-1.30012e-05
-0.473212
7.13707e-06
-0.429573
5.8664e-06
-0.389824
5.82202e-06
-0.353859
4.51266e-06
-0.321138
3.40074e-06
-0.291484
2.19712e-06
-0.264546
1.07513e-06
-0.240115
3.17553e-07
-0.217928
5.42147e-09
-0.197798
5.62396e-07
-0.179527
2.28603e-06
-0.162942
5.71333e-06
-0.147888
1.13602e-05
-0.134223
1.97647e-05
-0.121811
3.12616e-05
-0.11054
4.57488e-05
-0.100303
6.2489e-05
-0.0910043
7.99054e-05
-0.0825596
9.57236e-05
-0.0748858
0.000107416
-0.0679309
0.0001129
-0.0616161
0.00011123
-0.0558968
0.000102845
-0.0507127
8.93906e-05
-0.0460106
7.31904e-05
-0.0417495
5.65491e-05
-0.0378851
4.12971e-05
-0.0343784
2.83574e-05
-0.0311964
1.78483e-05
-0.0283091
9.60107e-06
-0.0256883
3.30017e-06
-0.0233102
-1.51714e-06
-0.021151
-5.08967e-06
-0.0191925
-7.54998e-06
-0.0174147
-9.47279e-06
-0.0158021
-1.0942e-05
-0.0143389
-1.24229e-05
-0.0130114
-1.27012e-05
-0.0118074
-1.22442e-05
-0.0107158
-1.2291e-05
-0.00972586
-1.28018e-05
-0.00882718
-1.41151e-05
-0.00801193
-1.6648e-05
-0.00726991
-1.65605e-05
-0.00659522
-1.16466e-05
-0.473214
6.5687e-06
-0.429572
5.41568e-06
-0.389823
5.39625e-06
-0.353857
4.19795e-06
-0.321137
3.17962e-06
-0.291483
2.0678e-06
-0.264545
1.01324e-06
-0.240114
2.79555e-07
-0.217927
-7.21049e-08
-0.197798
3.4758e-07
-0.179528
1.80865e-06
-0.162944
4.81698e-06
-0.147892
9.87821e-06
-0.134229
1.75607e-05
-0.121819
2.82963e-05
-0.110551
4.21963e-05
-0.100316
5.87764e-05
-0.0910186
7.6803e-05
-0.0825739
9.4215e-05
-0.0748986
0.00010847
-0.0679407
0.000117172
-0.0616219
0.000118763
-0.0558987
0.000113065
-0.0507111
0.000101246
-0.0460065
8.53633e-05
-0.0417442
6.78957e-05
-0.0378796
5.10243e-05
-0.0343733
3.62524e-05
-0.0311921
2.40766e-05
-0.0283055
1.43407e-05
-0.0256855
6.80025e-06
-0.023308
1.19712e-06
-0.0211493
-3.14786e-06
-0.0191912
-6.30643e-06
-0.0174138
-8.41022e-06
-0.0158014
-1.01727e-05
-0.0143383
-1.15405e-05
-0.0130108
-1.30505e-05
-0.0118069
-1.32247e-05
-0.0107152
-1.28174e-05
-0.00972505
-1.30668e-05
-0.00882626
-1.36448e-05
-0.00801121
-1.47952e-05
-0.0072696
-1.68171e-05
-0.00659579
-1.58411e-05
-0.00597707
-8.41645e-06
-0.473216
6.04311e-06
-0.42957
4.99732e-06
-0.389823
4.99652e-06
-0.353855
3.90455e-06
-0.321136
2.97261e-06
-0.291481
1.9461e-06
-0.264544
9.60871e-07
-0.240113
2.54713e-07
-0.217927
-1.23257e-07
-0.197799
1.81806e-07
-0.179529
1.41275e-06
-0.162946
4.04465e-06
-0.147896
8.55978e-06
-0.134234
1.55395e-05
-0.121827
2.54841e-05
-0.110561
3.86596e-05
-0.100329
5.48575e-05
-0.091033
7.31216e-05
-0.0825888
9.17135e-05
-0.0749126
0.000108184
-0.0679521
0.000119944
-0.0616297
0.000124958
-0.0559023
0.000122366
-0.0507108
0.000112787
-0.0460032
9.79515e-05
-0.0417391
8.02182e-05
-0.0378737
6.20275e-05
-0.0343676
4.5327e-05
-0.0311871
3.12401e-05
-0.0283014
1.98927e-05
-0.0256821
1.0981e-05
-0.0233053
4.16292e-06
-0.0211472
-9.95677e-07
-0.0191895
-4.89344e-06
-0.0174126
-7.58721e-06
-0.0158005
-9.34056e-06
-0.0143375
-1.09888e-05
-0.01301
-1.23749e-05
-0.0118061
-1.38099e-05
-0.0107145
-1.38905e-05
-0.00972431
-1.35396e-05
-0.00882537
-1.39179e-05
-0.00801031
-1.44332e-05
-0.00726902
-1.5294e-05
-0.00659567
-1.66897e-05
-0.00598091
-1.18312e-05
-0.00539763
-1.40584e-06
-0.473218
5.55139e-06
-0.429569
4.61004e-06
-0.389822
4.62438e-06
-0.353854
3.62857e-06
-0.321135
2.77931e-06
-0.29148
1.83272e-06
-0.264543
9.14243e-07
-0.240112
2.40317e-07
-0.217926
-1.53407e-07
-0.197799
5.70389e-08
-0.17953
1.08848e-06
-0.162948
3.3823e-06
-0.147899
7.39748e-06
-0.13424
1.37054e-05
-0.121835
2.28533e-05
-0.110571
3.52286e-05
-0.100341
5.0833e-05
-0.0910472
6.90429e-05
-0.0826041
8.83857e-05
-0.0749275
0.000106658
-0.0679652
0.000121203
-0.0616394
0.000129624
-0.0559078
0.000130472
-0.0507121
0.000123685
-0.046001
0.000110566
-0.0417344
9.32611e-05
-0.0378677
7.42199e-05
-0.0343614
5.57932e-05
-0.0311814
3.96308e-05
-0.0282965
2.63971e-05
-0.0256781
1.59005e-05
-0.0233021
7.72247e-06
-0.0211445
1.47753e-06
-0.0191873
-3.09199e-06
-0.0174109
-6.55819e-06
-0.0157993
-8.82037e-06
-0.0143366
-1.02706e-05
-0.0130091
-1.18939e-05
-0.0118051
-1.32959e-05
-0.0107136
-1.47613e-05
-0.00972351
-1.46861e-05
-0.00882457
-1.43172e-05
-0.0080094
-1.48015e-05
-0.00726819
-1.51865e-05
-0.0065953
-1.56382e-05
-0.00598189
-1.55649e-05
-0.00540815
-1.21763e-06
-0.00485846
5.3901e-06
-0.47322
5.101e-06
-0.429567
4.24698e-06
-0.389822
4.27882e-06
-0.353853
3.37116e-06
-0.321134
2.59703e-06
-0.291479
1.72729e-06
-0.264542
8.73041e-07
-0.240112
2.33258e-07
-0.217926
-1.67134e-07
-0.197799
-3.40776e-08
-0.179531
8.26235e-07
-0.16295
2.81951e-06
-0.147902
6.37666e-06
-0.134244
1.20575e-05
-0.121841
2.04202e-05
-0.11058
3.19487e-05
-0.100353
4.68203e-05
-0.091061
6.46793e-05
-0.0826194
8.44175e-05
-0.0749432
0.000104043
-0.0679795
0.000121023
-0.0616509
0.000132707
-0.0559153
0.000137136
-0.0507152
0.000133605
-0.0460001
0.00012282
-0.0417304
0.000106626
-0.0378618
8.74156e-05
-0.0343548
6.76542e-05
-0.031175
4.94334e-05
-0.0282909
3.40174e-05
-0.0256734
2.16916e-05
-0.0232982
1.20455e-05
-0.0211413
4.59895e-06
-0.0191847
-1.08732e-06
-0.0174087
-5.3261e-06
-0.0157976
-8.27548e-06
-0.0143354
-1.00294e-05
-0.0130081
-1.12755e-05
-0.011804
-1.30052e-05
-0.0107124
-1.44924e-05
-0.00972247
-1.57713e-05
-0.00882376
-1.54693e-05
-0.00800858
-1.51008e-05
-0.0072673
-1.56184e-05
-0.00659462
-1.57259e-05
-0.00598226
-1.51789e-05
-0.00541466
-8.85293e-06
-0.00486979
1.0252e-05
-0.00436812
1.13126e-05
-0.473221
4.67986e-06
-0.429566
3.9142e-06
-0.389822
3.95386e-06
-0.353852
3.13164e-06
-0.321133
2.42652e-06
-0.291478
1.62773e-06
-0.264541
8.36209e-07
-0.240111
2.31723e-07
-0.217926
-1.68313e-07
-0.197799
-9.75271e-08
-0.179531
6.15662e-07
-0.162952
2.34591e-06
-0.147905
5.48769e-06
-0.134248
1.05825e-05
-0.121848
1.81964e-05
-0.110589
2.88588e-05
-0.100364
4.28983e-05
-0.0910744
6.01951e-05
-0.0826347
7.99483e-05
-0.0749593
0.000100525
-0.067995
0.000119496
-0.061664
0.000134184
-0.0559248
0.000142204
-0.0507203
0.000142234
-0.0460009
0.000134372
-0.0417276
0.000119978
-0.0378565
0.000101287
-0.0343482
8.07762e-05
-0.0311681
6.07596e-05
-0.0282846
4.30964e-05
-0.025668
2.86319e-05
-0.0232937
1.72492e-05
-0.0211376
8.35886e-06
-0.0191816
1.46412e-06
-0.017406
-3.81096e-06
-0.0157954
-7.45952e-06
-0.0143338
-9.87318e-06
-0.0130069
-1.12062e-05
-0.0118029
-1.23798e-05
-0.0107111
-1.42802e-05
-0.00972122
-1.57127e-05
-0.00882275
-1.67635e-05
-0.00800781
-1.62423e-05
-0.00726649
-1.58915e-05
-0.00659382
-1.63975e-05
-0.00598195
-1.59734e-05
-0.00541957
-1.02475e-05
-0.00487922
6.58051e-07
-0.00437764
1.98219e-05
-0.00392547
1.55485e-05
-0.473222
4.29416e-06
-0.429565
3.60248e-06
-0.389822
3.65504e-06
-0.353851
2.9056e-06
-0.321132
2.26738e-06
-0.291477
1.53455e-06
-0.26454
8.02314e-07
-0.24011
2.34174e-07
-0.217925
-1.59992e-07
-0.197799
-1.38877e-07
-0.179532
4.49894e-07
-0.162953
1.94694e-06
-0.147907
4.72064e-06
-0.134252
9.27359e-06
-0.121853
1.61714e-05
-0.110596
2.5985e-05
-0.100374
3.91264e-05
-0.0910872
5.56924e-05
-0.0826497
7.5169e-05
-0.0749756
9.62479e-05
-0.0680113
0.000116806