/*--------------------------------*- C++ -*----------------------------------*\
  =========                 |
  \\      /  F ield         | OpenFOAM: The Open Source CFD Toolbox
   \\    /   O peration     | Website:  https://openfoam.org
    \\  /    A nd           | Version:  dev
     \\/     M anipulation  |
\*---------------------------------------------------------------------------*/
FoamFile
{
    version     2.0;
    format      ascii;
    class       volVectorField;
    location    "150";
    object      U;
}
// * * * * * * * * * * * * * * * * * * * * * * * * * * * * * * * * * * * * * //

dimensions      [0 1 -1 0 0 0 0];

internalField   nonuniform List<vector> 
29380
(
(51.0335 0.0135604 0)
(51.032 0.0148189 0)
(51.0991 -0.00168785 0)
(51.0312 0.0157097 0)
(51.0971 -0.00142873 0)
(51.0844 0.00752982 0)
(51.0304 0.0169075 0)
(51.0959 -0.00118297 0)
(51.0828 0.00846961 0)
(51.1131 -0.00186511 0)
(51.0297 0.0181724 0)
(51.0946 -0.000796181 0)
(51.0816 0.00908375 0)
(51.1108 -0.00132889 0)
(51.1111 0.00214083 0)
(51.0292 0.01951 0)
(51.0934 -0.000317409 0)
(51.0803 0.0098686 0)
(51.1095 -0.000877079 0)
(51.1094 0.00283905 0)
(51.1202 -0.00240507 0)
(51.0288 0.0208829 0)
(51.0922 0.00024485 0)
(51.0791 0.0106759 0)
(51.108 -0.000277147 0)
(51.1081 0.00329257 0)
(51.1181 -0.00179234 0)
(51.1211 -0.00163509 0)
(51.0285 0.0222708 0)
(51.0911 0.000871785 0)
(51.078 0.0115166 0)
(51.1067 0.000391346 0)
(51.1066 0.00387252 0)
(51.1168 -0.00131185 0)
(51.1193 -0.00105421 0)
(51.1229 -0.00340308 0)
(51.0284 0.02366 0)
(51.0899 0.00155201 0)
(51.077 0.0123637 0)
(51.1054 0.00111853 0)
(51.1053 0.00447791 0)
(51.1154 -0.000697669 0)
(51.1181 -0.000650772 0)
(51.1211 -0.00281166 0)
(51.1229 -0.00398145 0)
(51.0283 0.0250373 0)
(51.0888 0.0022728 0)
(51.0761 0.0132064 0)
(51.1042 0.00188699 0)
(51.1041 0.0051119 0)
(51.1141 -3.38778e-05 0)
(51.1167 -0.00012889 0)
(51.1199 -0.00236513 0)
(51.1213 -0.00344181 0)
(51.122 -0.00453203 0)
(51.0284 0.026396 0)
(51.0877 0.00302766 0)
(51.0753 0.0140301 0)
(51.103 0.00267613 0)
(51.103 0.00575173 0)
(51.1129 0.000677308 0)
(51.1155 0.000435881 0)
(51.1186 -0.00179544 0)
(51.1202 -0.00304688 0)
(51.1205 -0.00398161 0)
(51.1208 -0.00537173 0)
(51.0285 0.0277281 0)
(51.0866 0.00380774 0)
(51.0744 0.0148285 0)
(51.1019 0.0034761 0)
(51.1019 0.00638308 0)
(51.1118 0.00141421 0)
(51.1143 0.00104595 0)
(51.1175 -0.00116911 0)
(51.119 -0.00253865 0)
(51.1195 -0.00356779 0)
(51.1194 -0.00485313 0)
(51.1188 -0.00548212 0)
(51.0287 0.0290299 0)
(51.0855 0.00460973 0)
(51.0737 0.0155941 0)
(51.1008 0.00427012 0)
(51.1009 0.00698846 0)
(51.1108 0.00215896 0)
(51.1133 0.00168291 0)
(51.1164 -0.000481477 0)
(51.1179 -0.0019675 0)
(51.1184 -0.0030447 0)
(51.1185 -0.00446155 0)
(51.1176 -0.00497399 0)
(51.1166 -0.00612817 0)
(51.029 0.0302959 0)
(51.0844 0.00542711 0)
(51.073 0.0163249 0)
(51.0997 0.00505384 0)
(51.1 0.00755787 0)
(51.1098 0.00289166 0)
(51.1123 0.00232914 0)
(51.1154 0.000253921 0)
(51.1168 -0.00132231 0)
(51.1174 -0.00245 0)
(51.1175 -0.00397026 0)
(51.1168 -0.00458501 0)
(51.1157 -0.0056415 0)
(51.114 -0.00608549 0)
(51.0294 0.0315237 0)
(51.0833 0.00625781 0)
(51.0723 0.0170185 0)
(51.0987 0.00581626 0)
(51.0991 0.00807851 0)
(51.109 0.00359481 0)
(51.1115 0.00296539 0)
(51.1145 0.00102009 0)
(51.1159 -0.00061114 0)
(51.1164 -0.00176759 0)
(51.1166 -0.00339985 0)
(51.1159 -0.00410636 0)
(51.115 -0.00526549 0)
(51.1133 -0.00562816 0)
(51.1112 -0.00643784 0)
(51.0298 0.0327091 0)
(51.0822 0.0070964 0)
(51.0717 0.0176759 0)
(51.0977 0.00655745 0)
(51.0983 0.00854723 0)
(51.1082 0.00425303 0)
(51.1107 0.00357078 0)
(51.1138 0.00179519 0)
(51.1151 0.000154972 0)
(51.1156 -0.000995905 0)
(51.1157 -0.00272866 0)
(51.1151 -0.00354251 0)
(51.1142 -0.00481158 0)
(51.1128 -0.00527022 0)
(51.1108 -0.0060066 0)
(51.1081 -0.00631597 0)
(51.0303 0.0338501 0)
(51.0811 0.00794071 0)
(51.071 0.0182975 0)
(51.0967 0.00727166 0)
(51.0975 0.00895798 0)
(51.1074 0.00485415 0)
(51.1101 0.00412778 0)
(51.1132 0.00255851 0)
(51.1144 0.00095912 0)
(51.1148 -0.000140142 0)
(51.1149 -0.0019469 0)
(51.1143 -0.00286787 0)
(51.1135 -0.00426686 0)
(51.1122 -0.00484894 0)
(51.1104 -0.00566568 0)
(51.1079 -0.00592626 0)
(51.1046 -0.00641088 0)
(51.0308 0.0349434 0)
(51.08 0.00878553 0)
(51.0704 0.0188856 0)
(51.0957 0.00796174 0)
(51.0967 0.00931383 0)
(51.1068 0.00539047 0)
(51.1095 0.0046195 0)
(51.1127 0.00328276 0)
(51.1139 0.00177541 0)
(51.1142 0.000786822 0)
(51.1142 -0.00105057 0)
(51.1136 -0.00206472 0)
(51.1128 -0.00360281 0)
(51.1116 -0.00433278 0)
(51.1099 -0.00527687 0)
(51.1077 -0.00561094 0)
(51.1048 -0.0060583 0)
(51.1008 -0.00621929 0)
(51.0314 0.0359871 0)
(51.0789 0.00962818 0)
(51.0699 0.019442 0)
(51.0947 0.00862551 0)
(51.096 0.00961482 0)
(51.1061 0.00585748 0)
(51.1091 0.00503404 0)
(51.1123 0.00394906 0)
(51.1136 0.00258181 0)
(51.1138 0.00176576 0)
(51.1136 -4.37297e-05 0)
(51.1129 -0.00112039 0)
(51.1121 -0.00279423 0)
(51.1109 -0.00369034 0)
(51.1094 -0.00479143 0)
(51.1074 -0.00526486 0)
(51.1048 -0.00576555 0)
(51.1014 -0.00591782 0)
(51.0965 -0.00612201 0)
(51.032 0.0369785 0)
(51.0779 0.0104636 0)
(51.0693 0.019969 0)
(51.0937 0.00926661 0)
(51.0952 0.00986802 0)
(51.1055 0.00625538 0)
(51.1087 0.00536318 0)
(51.1121 0.00453378 0)
(51.1134 0.00334618 0)
(51.1135 0.00276797 0)
(51.1132 0.00105929 0)
(51.1124 -2.8377e-05 0)
(51.1115 -0.00182132 0)
(51.1103 -0.00289219 0)
(51.1089 -0.00417553 0)
(51.1071 -0.00482303 0)
(51.1047 -0.005457 0)
(51.1015 -0.00565536 0)
(51.0975 -0.00587144 0)
(51.0919 -0.00586306 0)
(51.0326 0.0379163 0)
(51.0769 0.0112886 0)
(51.0688 0.0204683 0)
(51.0928 0.00988456 0)
(51.0945 0.0100773 0)
(51.1049 0.0065867 0)
(51.1083 0.00560375 0)
(51.112 0.00502435 0)
(51.1133 0.00404625 0)
(51.1135 0.00376365 0)
(51.113 0.00223535 0)
(51.112 0.00120706 0)
(51.1109 -0.00066707 0)
(51.1097 -0.00191075 0)
(51.1083 -0.00339423 0)
(51.1066 -0.00424837 0)
(51.1044 -0.00505715 0)
(51.1016 -0.00538902 0)
(51.0978 -0.005639 0)
(51.0933 -0.00566968 0)
(51.0866 -0.0056346 0)
(51.0332 0.0387985 0)
(51.0759 0.0120986 0)
(51.0683 0.0209419 0)
(51.0918 0.0104825 0)
(51.0938 0.0102512 0)
(51.1043 0.00685739 0)
(51.108 0.00575711 0)
(51.1119 0.00540751 0)
(51.1134 0.00465281 0)
(51.1136 0.0047181 0)
(51.113 0.00345349 0)
(51.1118 0.00257 0)
(51.1105 0.000676306 0)
(51.1091 -0.000720051 0)
(51.1077 -0.00241628 0)
(51.1061 -0.00350369 0)
(51.1041 -0.00452548 0)
(51.1015 -0.00503807 0)
(51.0982 -0.00540888 0)
(51.0938 -0.00547423 0)
(51.0885 -0.00549619 0)
(51.0809 -0.00532451 0)
(51.0338 0.039624 0)
(51.0749 0.0128902 0)
(51.0678 0.0213911 0)
(51.0909 0.0110605 0)
(51.0931 0.010395 0)
(51.1038 0.00707441 0)
(51.1077 0.00582834 0)
(51.1119 0.00568081 0)
(51.1137 0.00515128 0)
(51.114 0.00559956 0)
(51.1133 0.00467579 0)
(51.1118 0.00403418 0)
(51.1103 0.00220452 0)
(51.1087 0.000699576 0)
(51.1071 -0.00120661 0)
(51.1055 -0.00255149 0)
(51.1037 -0.00382105 0)
(51.1013 -0.00455692 0)
(51.0983 -0.00510388 0)
(51.0944 -0.00528111 0)
(51.0893 -0.00533871 0)
(51.0833 -0.00523735 0)
(51.0748 -0.00502143 0)
(51.0345 0.0403916 0)
(51.0739 0.0136593 0)
(51.0674 0.0218172 0)
(51.09 0.0116206 0)
(51.0924 0.0105166 0)
(51.1032 0.00724642 0)
(51.1074 0.00582606 0)
(51.112 0.00584332 0)
(51.114 0.00552326 0)
(51.1145 0.00637537 0)
(51.1138 0.00586325 0)
(51.1121 0.0055637 0)
(51.1103 0.00390067 0)
(51.1084 0.00235783 0)
(51.1067 0.000264249 0)
(51.105 -0.00135243 0)
(51.1032 -0.00290483 0)
(51.101 -0.00390589 0)
(51.0982 -0.00467239 0)
(51.0947 -0.00502531 0)
(51.0902 -0.0051775 0)
(51.0844 -0.00512191 0)
(51.0776 -0.00497986 0)
(51.0681 -0.0046867 0)
(51.0351 0.0411009 0)
(51.073 0.0144033 0)
(51.067 0.0222214 0)
(51.0891 0.0121628 0)
(51.0917 0.0106212 0)
(51.1026 0.00738179 0)
(51.1071 0.00576055 0)
(51.112 0.00590223 0)
(51.1144 0.0057664 0)
(51.1152 0.00702275 0)
(51.1145 0.00697399 0)
(51.1127 0.00711415 0)
(51.1106 0.00573507 0)
(51.1083 0.00425132 0)
(51.1063 0.00201963 0)
(51.1044 0.000132727 0)
(51.1026 -0.00173119 0)
(51.1005 -0.00304117 0)
(51.098 -0.0040749 0)
(51.0948 -0.0046459 0)
(51.0907 -0.00496902 0)
(51.0855 -0.00499065 0)
(51.079 -0.0049051 0)
(51.0714 -0.00468061 0)
(51.0611 -0.00435714 0)
(51.0358 0.0417514 0)
(51.0722 0.0151189 0)
(51.0666 0.0226045 0)
(51.0883 0.0126882 0)
(51.091 0.010715 0)
(51.1021 0.00748924 0)
(51.1068 0.00564384 0)
(51.1121 0.00586628 0)
(51.1149 0.00587652 0)
(51.116 0.0075203 0)
(51.1155 0.00797022 0)
(51.1136 0.00863818 0)
(51.1111 0.00766657 0)
(51.1085 0.00636225 0)
(51.1061 0.00407284 0)
(51.104 0.00193913 0)
(51.102 -0.000256073 0)
(51.1 -0.00191665 0)
(51.0976 -0.00326796 0)
(51.0947 -0.00410836 0)
(51.091 -0.00464067 0)
(51.0862 -0.00483036 0)
(51.0804 -0.00479919 0)
(51.0731 -0.00464692 0)
(51.0647 -0.00437763 0)
(51.0538 -0.00402823 0)
(51.0364 0.0423435 0)
(51.0713 0.015804 0)
(51.0662 0.0229673 0)
(51.0874 0.0131966 0)
(51.0903 0.010802 0)
(51.1015 0.00757643 0)
(51.1065 0.00548782 0)
(51.1122 0.00574879 0)
(51.1154 0.00586297 0)
(51.1169 0.00786042 0)
(51.1166 0.00881909 0)
(51.1148 0.0100839 0)
(51.1121 0.00964158 0)
(51.109 0.00865682 0)
(51.1061 0.00642175 0)
(51.1036 0.00409567 0)
(51.1014 0.00156614 0)
(51.0994 -0.000482267 0)
(51.0971 -0.00220179 0)
(51.0944 -0.00336569 0)
(51.091 -0.00416112 0)
(51.0867 -0.00455305 0)
(51.0814 -0.00468547 0)
(51.0748 -0.00456286 0)
(51.0668 -0.00437855 0)
(51.0577 -0.00406442 0)
(51.0464 -0.00371135 0)
(51.037 0.0428776 0)
(51.0705 0.0164564 0)
(51.0659 0.0233104 0)
(51.0866 0.0136884 0)
(51.0897 0.0108865 0)
(51.1009 0.0076506 0)
(51.1062 0.00530459 0)
(51.1122 0.00556362 0)
(51.1158 0.0057336 0)
(51.1178 0.00803764 0)
(51.1179 0.00949511 0)
(51.1162 0.0114047 0)
(51.1133 0.0116049 0)
(51.1098 0.011089 0)
(51.1064 0.0090483 0)
(51.1034 0.00661955 0)
(51.1009 0.00378052 0)
(51.0987 0.00131431 0)
(51.0965 -0.000826835 0)
(51.0939 -0.00237084 0)
(51.0908 -0.00348434 0)
(51.0869 -0.0041348 0)
(51.0821 -0.00445723 0)
(51.0761 -0.0044957 0)
(51.0688 -0.00431018 0)
(51.06 -0.00409664 0)
(51.0504 -0.00375558 0)
(51.0389 -0.00341449 0)
(51.0376 0.0433547 0)
(51.0698 0.0170748 0)
(51.0655 0.0236345 0)
(51.0859 0.0141633 0)
(51.089 0.0109714 0)
(51.1004 0.0077176 0)
(51.1058 0.00510504 0)
(51.1123 0.00532603 0)
(51.1163 0.00550533 0)
(51.1188 0.00805936 0)
(51.1194 0.00998293 0)
(51.1179 0.0125574 0)
(51.1149 0.0134919 0)
(51.111 0.013595 0)
(51.107 0.0119153 0)
(51.1034 0.00951165 0)
(51.1005 0.00642067 0)
(51.098 0.00352934 0)
(51.0957 0.000914725 0)
(51.0933 -0.00107313 0)
(51.0904 -0.0025619 0)
(51.0869 -0.00352666 0)
(51.0825 -0.00409691 0)
(51.077 -0.00431588 0)
(51.0704 -0.00428739 0)
(51.0624 -0.00403782 0)
(51.053 -0.00381025 0)
(51.043 -0.00345901 0)
(51.0316 -0.00313919 0)
(51.0382 0.0437761 0)
(51.0691 0.0176582 0)
(51.0652 0.0239402 0)
(51.0851 0.0146213 0)
(51.0884 0.0110592 0)
(51.0998 0.00778263 0)
(51.1055 0.0048991 0)
(51.1123 0.00505061 0)
(51.1168 0.00519292 0)
(51.1198 0.0079344 0)
(51.1209 0.0102755 0)
(51.1198 0.0135085 0)
(51.1169 0.0152466 0)
(51.1127 0.01611 0)
(51.1081 0.0149706 0)
(51.1038 0.0127542 0)
(51.1002 0.00951055 0)
(51.0973 0.00621648 0)
(51.0949 0.00309157 0)
(51.0925 0.000585851 0)
(51.0898 -0.00134932 0)
(51.0865 -0.00268276 0)
(51.0825 -0.0035572 0)
(51.0776 -0.00401496 0)
(51.0716 -0.00415409 0)
(51.0643 -0.00405655 0)
(51.0557 -0.00375383 0)
(51.0457 -0.00353049 0)
(51.0355 -0.00317851 0)
(51.0246 -0.00289715 0)
(51.0388 0.0441435 0)
(51.0684 0.0182061 0)
(51.065 0.0242279 0)
(51.0844 0.0150621 0)
(51.0878 0.0111515 0)
(51.0993 0.00784959 0)
(51.1051 0.00469522 0)
(51.1122 0.00475121 0)
(51.1172 0.00481579 0)
(51.1208 0.00768075 0)
(51.1224 0.0103763 0)
(51.1218 0.0142348 0)
(51.1191 0.0168116 0)
(51.1148 0.0185561 0)
(51.1097 0.0181426 0)
(51.1046 0.0163074 0)
(51.1003 0.0130557 0)
(51.0968 0.00941925 0)
(51.094 0.00576853 0)
(51.0915 0.00268135 0)
(51.089 0.000211115 0)
(51.086 -0.00156092 0)
(51.0823 -0.00278967 0)
(51.0778 -0.00354436 0)
(51.0724 -0.00390931 0)
(51.0657 -0.00396805 0)
(51.0579 -0.00381026 0)
(51.0487 -0.00346972 0)
(51.0384 -0.00325606 0)
(51.0283 -0.00292828 0)
(51.0183 -0.00268572 0)
(51.0393 0.0444585 0)
(51.0678 0.0187183 0)
(51.0647 0.0244981 0)
(51.0838 0.0154854 0)
(51.0873 0.0112497 0)
(51.0988 0.0079216 0)
(51.1047 0.00450052 0)
(51.1122 0.00444042 0)
(51.1175 0.00439033 0)
(51.1217 0.00731606 0)
(51.124 0.0102956 0)
(51.1239 0.0147248 0)
(51.1216 0.0181456 0)
(51.1173 0.0208641 0)
(51.1117 0.0213507 0)
(51.1059 0.0201107 0)
(51.1007 0.0170397 0)
(51.0964 0.0131697 0)
(51.0931 0.00901178 0)
(51.0904 0.00529271 0)
(51.0879 0.0022003 0)
(51.0851 -0.000110519 0)
(51.0818 -0.00175972 0)
(51.0777 -0.0028559 0)
(51.0728 -0.00350717 0)
(51.0667 -0.00377878 0)
(51.0595 -0.00376236 0)
(51.0512 -0.00355966 0)
(51.0416 -0.00318346 0)
(51.0311 -0.00300487 0)
(51.0215 -0.00270628 0)
(51.0128 -0.00251187 0)
(51.0399 0.0447232 0)
(51.0672 0.0191949 0)
(51.0645 0.0247511 0)
(51.0832 0.0158912 0)
(51.0867 0.0113543 0)
(51.0983 0.00800083 0)
(51.1044 0.00432047 0)
(51.1121 0.00412906 0)
(51.1178 0.00393444 0)
(51.1226 0.00686262 0)
(51.1255 0.0100514 0)
(51.1261 0.0149784 0)
(51.1243 0.0192138 0)
(51.1201 0.0229609 0)
(51.1143 0.0245055 0)
(51.1078 0.0240852 0)
(51.1016 0.0214203 0)
(51.0964 0.0174794 0)
(51.0923 0.0128766 0)
(51.0892 0.00849991 0)
(51.0867 0.00470155 0)
(51.084 0.00174928 0)
(51.081 -0.000423631 0)
(51.0773 -0.00191718 0)
(51.0728 -0.00289542 0)
(51.0673 -0.00344431 0)
(51.0607 -0.0036226 0)
(51.0531 -0.00355049 0)
(51.0443 -0.00330255 0)
(51.0344 -0.00291239 0)
(51.0241 -0.00277302 0)
(51.0155 -0.0025258 0)
(51.0084 -0.00236739 0)
(51.0404 0.0449396 0)
(51.0666 0.0196362 0)
(51.0643 0.0249874 0)
(51.0826 0.0162792 0)
(51.0862 0.0114657 0)
(51.0978 0.00808876 0)
(51.104 0.00415944 0)
(51.112 0.00382626 0)
(51.1181 0.00346266 0)
(51.1234 0.00634079 0)
(51.127 0.00966502 0)
(51.1283 0.0150055 0)
(51.1271 0.0200002 0)
(51.1232 0.024794 0)
(51.1173 0.0275172 0)
(51.1102 0.0281321 0)
(51.1031 0.0261293 0)
(51.0968 0.0223337 0)
(51.0918 0.0174041 0)
(51.088 0.0123821 0)
(51.0852 0.0078134 0)
(51.0826 0.00410798 0)
(51.0799 0.00129859 0)
(51.0765 -0.000696443 0)
(51.0724 -0.00204672 0)
(51.0675 -0.00291163 0)
(51.0615 -0.00335258 0)
(51.0545 -0.003458 0)
(51.0465 -0.00332876 0)
(51.0374 -0.00305387 0)
(51.0274 -0.00265308 0)
(51.0177 -0.00257768 0)
(51.0104 -0.00237808 0)
(51.0052 -0.00225278 0)
(51.0408 0.0451096 0)
(51.0661 0.0200429 0)
(51.0641 0.0252073 0)
(51.082 0.0166493 0)
(51.0857 0.0115839 0)
(51.0973 0.00818615 0)
(51.1036 0.00402034 0)
(51.1119 0.0035394 0)
(51.1183 0.00298898 0)
(51.1241 0.00577212 0)
(51.1283 0.00916143 0)
(51.1304 0.0148246 0)
(51.13 0.0204985 0)
(51.1266 0.0263148 0)
(51.1208 0.0302984 0)
(51.1132 0.0321473 0)
(51.1052 0.0310755 0)
(51.0977 0.0276884 0)
(51.0916 0.0226132 0)
(51.087 0.0170079 0)
(51.0836 0.0116305 0)
(51.0809 0.00707048 0)
(51.0784 0.00349031 0)
(51.0753 0.000882528 0)
(51.0717 -0.000939177 0)
(51.0673 -0.00215211 0)
(51.0619 -0.0028962 0)
(51.0554 -0.00324929 0)
(51.048 -0.00327969 0)
(51.0397 -0.0031141 0)
(51.0305 -0.00281074 0)
(51.0208 -0.00242346 0)
(51.0121 -0.00241252 0)
(51.0066 -0.00226835 0)
(51.0033 -0.00216299 0)
(51.0413 0.0452355 0)
(51.0656 0.0204157 0)
(51.0639 0.0254109 0)
(51.0815 0.0170014 0)
(51.0853 0.0117084 0)
(51.0968 0.00829332 0)
(51.1032 0.00390513 0)
(51.1117 0.00327418 0)
(51.1184 0.00252446 0)
(51.1248 0.00517497 0)
(51.1296 0.00856557 0)
(51.1325 0.0144597 0)
(51.1329 0.0207181 0)
(51.1302 0.0275011 0)
(51.1247 0.0327782 0)
(51.1169 0.0360181 0)
(51.1079 0.0361426 0)
(51.0993 0.0334661 0)
(51.0918 0.0284932 0)
(51.0861 0.0224317 0)
(51.082 0.0162481 0)
(51.0789 0.0107502 0)
(51.0765 0.00626809 0)
(51.0738 0.00289676 0)
(51.0705 0.000500206 0)
(51.0666 -0.00115795 0)
(51.0618 -0.00222549 0)
(51.0559 -0.00286865 0)
(51.0491 -0.00312842 0)
(51.0414 -0.00310644 0)
(51.033 -0.0029015 0)
(51.0239 -0.00258833 0)
(51.0149 -0.00222129 0)
(51.0076 -0.00228573 0)
(51.004 -0.00218767 0)
(51.003 -0.00209953 0)
(51.0417 0.0453193 0)
(51.0652 0.0207556 0)
(51.0637 0.0255986 0)
(51.081 0.0173354 0)
(51.0848 0.0118389 0)
(51.0964 0.00841006 0)
(51.1029 0.00381477 0)
(51.1115 0.00303467 0)
(51.1185 0.00207872 0)
(51.1253 0.00456705 0)
(51.1308 0.0079026 0)
(51.1345 0.0139391 0)
(51.1357 0.0206764 0)
(51.1339 0.0283379 0)
(51.1289 0.0348958 0)
(51.121 0.0396399 0)
(51.1115 0.0412057 0)
(51.1016 0.0395614 0)
(51.0927 0.0349971 0)
(51.0856 0.0286842 0)
(51.0804 0.0217541 0)
(51.0768 0.0152604 0)
(51.0742 0.00975182 0)
(51.0717 0.00546048 0)
(51.0689 0.00233155 0)
(51.0654 0.00014406 0)
(51.0611 -0.0013452 0)
(51.0559 -0.00228381 0)
(51.0496 -0.00281927 0)
(51.0425 -0.0030093 0)
(51.0348 -0.00293418 0)
(51.0265 -0.00270668 0)
(51.0178 -0.00238789 0)
(51.0098 -0.00205708 0)
(51.0043 -0.0021918 0)
(51.0029 -0.00214139 0)
(51.0049 -0.00206513 0)
(51.0421 0.0453631 0)
(51.0648 0.0210635 0)
(51.0636 0.0257706 0)
(51.0806 0.0176514 0)
(51.0844 0.0119746 0)
(51.096 0.00853607 0)
(51.1025 0.00374952 0)
(51.1114 0.00282367 0)
(51.1186 0.00165885 0)
(51.1258 0.00396254 0)
(51.1319 0.00719555 0)
(51.1364 0.0132921 0)
(51.1385 0.0204002 0)
(51.1376 0.0288336 0)
(51.1333 0.0366164 0)
(51.1257 0.0429203 0)
(51.1157 0.0461287 0)
(51.1047 0.0458374 0)
(51.0943 0.042037 0)
(51.0856 0.0357583 0)
(51.0791 0.0282221 0)
(51.0746 0.0207195 0)
(51.0716 0.0140744 0)
(51.0692 0.00870459 0)
(51.0668 0.00467088 0)
(51.0637 0.00179721 0)
(51.0599 -0.000178242 0)
(51.0553 -0.00151756 0)
(51.0497 -0.00231746 0)
(51.0431 -0.00276941 0)
(51.0359 -0.00288976 0)
(51.0283 -0.00277721 0)
(51.0204 -0.00253029 0)
(51.0124 -0.00221975 0)
(51.0058 -0.00193021 0)
(51.0023 -0.00213563 0)
(51.0039 -0.00212805 0)
(51.009 -0.00205053 0)
(51.0425 0.0453691 0)
(51.0644 0.0213406 0)
(51.0634 0.0259272 0)
(51.0801 0.0179497 0)
(51.0841 0.0121149 0)
(51.0956 0.00867067 0)
(51.1022 0.0037092 0)
(51.1112 0.00264271 0)
(51.1186 0.00127051 0)
(51.1263 0.00337394 0)
(51.1329 0.00646543 0)
(51.1381 0.0125486 0)
(51.1412 0.0199206 0)
(51.1413 0.0290026 0)
(51.1378 0.0379184 0)
(51.1307 0.0457848 0)
(51.1205 0.0507845 0)
(51.1087 0.0521462 0)
(51.0968 0.0494914 0)
(51.0863 0.0436026 0)
(51.0782 0.0356937 0)
(51.0725 0.0272421 0)
(51.0687 0.0193777 0)
(51.0662 0.0127712 0)
(51.064 0.00764417 0)
(51.0615 0.00390712 0)
(51.0582 0.00129721 0)
(51.0542 -0.000481755 0)
(51.0492 -0.00166478 0)
(51.0433 -0.00234509 0)
(51.0365 -0.00271696 0)
(51.0294 -0.00278508 0)
(51.0222 -0.00263969 0)
(51.0149 -0.00238397 0)
(51.0079 -0.00208622 0)
(51.0029 -0.00184716 0)
(51.0023 -0.00211965 0)
(51.0073 -0.00214599 0)
(51.015 -0.00205592 0)
(51.0428 0.0453395 0)
(51.064 0.0215881 0)
(51.0633 0.0260687 0)
(51.0798 0.0182302 0)
(51.0837 0.012259 0)
(51.0952 0.00881311 0)
(51.1019 0.00369301 0)
(51.111 0.00249266 0)
(51.1186 0.000917422 0)
(51.1266 0.00281069 0)
(51.1337 0.00573008 0)
(51.1397 0.0117363 0)
(51.1437 0.0192718 0)
(51.1449 0.0288755 0)
(51.1424 0.0388049 0)
(51.136 0.0481828 0)
(51.126 0.0550591 0)
(51.1135 0.0583256 0)
(51.1002 0.0571985 0)
(51.0879 0.0521157 0)
(51.0778 0.0441637 0)
(51.0706 0.0349207 0)
(51.0658 0.0258126 0)
(51.0627 0.0178239 0)
(51.0606 0.0114054 0)
(51.0585 0.00659883 0)
(51.0559 0.00318263 0)
(51.0524 0.000824441 0)
(51.0481 -0.000759448 0)
(51.0428 -0.00180451 0)
(51.0366 -0.00236606 0)
(51.0299 -0.00267875 0)
(51.0232 -0.00269962 0)
(51.0166 -0.0025292 0)
(51.01 -0.00226966 0)
(51.0042 -0.00199306 0)
(51.0017 -0.00181343 0)
(51.0047 -0.0021435 0)
(51.013 -0.00219063 0)
(51.0215 -0.0020476 0)
(51.0431 0.0452766 0)
(51.0637 0.0218074 0)
(51.0632 0.0261956 0)
(51.0794 0.0184937 0)
(51.0834 0.0124063 0)
(51.0949 0.0089626 0)
(51.1016 0.00369992 0)
(51.1108 0.0023733 0)
(51.1186 0.000602346 0)
(51.1269 0.00228043 0)
(51.1345 0.00500465 0)
(51.1412 0.0108809 0)
(51.1461 0.0184882 0)
(51.1483 0.0284848 0)
(51.147 0.0392896 0)
(51.1416 0.0500851 0)
(51.132 0.0588585 0)
(51.1191 0.0642241 0)
(51.1046 0.0649862 0)
(51.0904 0.0611559 0)
(51.0783 0.0535733 0)
(51.0691 0.0438067 0)
(51.0629 0.0335191 0)
(51.059 0.0240439 0)
(51.0567 0.0161323 0)
(51.0548 0.0100229 0)
(51.0528 0.00558665 0)
(51.0499 0.00249127 0)
(51.0463 0.000379404 0)
(51.0416 -0.00102514 0)
(51.0361 -0.00193507 0)
(51.0299 -0.00239593 0)
(51.0234 -0.0026592 0)
(51.0174 -0.00264154 0)
(51.0116 -0.00245137 0)
(51.0059 -0.00219108 0)
(51.0019 -0.00194676 0)
(51.0027 -0.00183162 0)
(51.0097 -0.00220741 0)
(51.0199 -0.00223251 0)
(51.0272 -0.00204939 0)
(51.0435 0.0451822 0)
(51.0634 0.0219998 0)
(51.0631 0.0263081 0)
(51.0791 0.0187403 0)
(51.0831 0.012556 0)
(51.0946 0.00911823 0)
(51.1013 0.00372873 0)
(51.1106 0.00228403 0)
(51.1186 0.000326467 0)
(51.1272 0.00178867 0)
(51.1352 0.00430119 0)
(51.1425 0.0100045 0)
(51.1483 0.0176032 0)
(51.1516 0.0278713 0)
(51.1515 0.0394037 0)
(51.1472 0.0514866 0)
(51.1383 0.0621165 0)
(51.1255 0.0697019 0)
(51.1101 0.0726638 0)
(51.0941 0.0705368 0)
(51.0797 0.0638024 0)
(51.0682 0.0538927 0)
(51.0602 0.0426068 0)
(51.0551 0.0316132 0)
(51.0523 0.0220306 0)
(51.0505 0.0143696 0)
(51.0488 0.00866006 0)
(51.0467 0.00461639 0)
(51.0437 0.00183633 0)
(51.0397 -4.73e-05 0)
(51.0349 -0.00128062 0)
(51.0293 -0.00207177 0)
(51.0232 -0.00243958 0)
(51.0174 -0.0026661 0)
(51.0122 -0.00261543 0)
(51.0071 -0.00240215 0)
(51.0027 -0.00215483 0)
(51.0015 -0.00195343 0)
(51.0064 -0.00190329 0)
(51.0163 -0.00228064 0)
(51.0264 -0.0022789 0)
(51.0307 -0.00200725 0)
(51.0437 0.0450578 0)
(51.0631 0.0221667 0)
(51.063 0.0264069 0)
(51.0787 0.0189705 0)
(51.0828 0.0127076 0)
(51.0943 0.0092793 0)
(51.101 0.00377796 0)
(51.1104 0.0022238 0)
(51.1185 9.01916e-05 0)
(51.1274 0.00133916 0)
(51.1358 0.00362954 0)
(51.1437 0.00912642 0)
(51.1503 0.0166473 0)
(51.1547 0.0270738 0)
(51.1559 0.0391835 0)
(51.1528 0.0524001 0)
(51.1449 0.0647918 0)
(51.1324 0.0746445 0)
(51.1165 0.0800516 0)
(51.099 0.0800567 0)
(51.0823 0.0746866 0)
(51.0683 0.0651072 0)
(51.058 0.0531315 0)
(51.0512 0.0406974 0)
(51.0475 0.0293177 0)
(51.0454 0.0198637 0)
(51.0441 0.012597 0)
(51.0425 0.00733562 0)
(51.0403 0.00368795 0)
(51.0371 0.00120891 0)
(51.0329 -0.000461341 0)
(51.028 -0.00153753 0)
(51.0225 -0.00221719 0)
(51.0168 -0.00250433 0)
(51.0118 -0.00270614 0)
(51.0075 -0.0026157 0)
(51.0034 -0.00238973 0)
(51.0011 -0.00216463 0)
(51.0037 -0.00201583 0)
(51.0123 -0.00200137 0)
(51.023 -0.00236655 0)
(51.031 -0.0022805 0)
(51.0308 -0.00198892 0)
(51.044 0.0449053 0)
(51.0629 0.022309 0)
(51.0629 0.026492 0)
(51.0785 0.019185 0)
(51.0826 0.0128601 0)
(51.094 0.00944491 0)
(51.1007 0.0038464 0)
(51.1102 0.0021912 0)
(51.1185 -0.000106872 0)
(51.1276 0.000934093 0)
(51.1363 0.0029967 0)
(51.1448 0.00826279 0)
(51.1522 0.0156483 0)
(51.1576 0.026133 0)
(51.1601 0.0386744 0)
(51.1584 0.0528557 0)
(51.1517 0.0668709 0)
(51.1399 0.0789653 0)
(51.1237 0.0869802 0)
(51.1051 0.0894954 0)
(51.0862 0.0860153 0)
(51.0695 0.0773107 0)
(51.0565 0.0650772 0)
(51.0476 0.0514168 0)
(51.0424 0.0382119 0)
(51.0398 0.0267514 0)
(51.0385 0.0176333 0)
(51.0374 0.0108453 0)
(51.0359 0.00605861 0)
(51.0335 0.00280314 0)
(51.03 0.000603997 0)
(51.0258 -0.000872169 0)
(51.021 -0.00180053 0)
(51.0157 -0.00237673 0)
(51.0108 -0.00259768 0)
(51.0068 -0.00277043 0)
(51.0034 -0.0026465 0)
(51.0009 -0.00241192 0)
(51.0017 -0.00223052 0)
(51.0083 -0.00211543 0)
(51.0187 -0.00212179 0)
(51.0281 -0.00241308 0)
(51.0324 -0.00229174 0)
(51.025 -0.00190597 0)
(51.0443 0.0447254 0)
(51.0626 0.0224281 0)
(51.0629 0.0265638 0)
(51.0782 0.019384 0)
(51.0823 0.0130133 0)
(51.0937 0.009614 0)
(51.1005 0.00393245 0)
(51.1101 0.00218495 0)
(51.1184 -0.000265773 0)
(51.1277 0.000574594 0)
(51.1368 0.00240787 0)
(51.1457 0.00742648 0)
(51.1539 0.0146305 0)
(51.1603 0.0250852 0)
(51.164 0.0379213 0)
(51.1638 0.0528939 0)
(51.1585 0.0683627 0)
(51.1477 0.0826088 0)
(51.1317 0.0933116 0)
(51.1122 0.0986421 0)
(51.0915 0.0975496 0)
(51.0721 0.0903112 0)
(51.0561 0.0783572 0)
(51.0445 0.0638226 0)
(51.0373 0.0488969 0)
(51.0336 0.0352937 0)
(51.0321 0.0240328 0)
(51.0313 0.0153904 0)
(51.0304 0.00914134 0)
(51.0288 0.00483658 0)
(51.0262 0.0019516 0)
(51.0227 1.12117e-05 0)
(51.0186 -0.00128702 0)
(51.014 -0.00207077 0)
(51.0093 -0.00255828 0)
(51.0052 -0.00271258 0)
(51.0022 -0.00286382 0)
(51.0001 -0.00270378 0)
(51.0003 -0.00248501 0)
(51.0049 -0.00233592 0)
(51.0139 -0.00224133 0)
(51.0239 -0.00221495 0)
(51.0301 -0.00246914 0)
(51.0284 -0.00223924 0)
(51.0062 -0.00183751 0)
(51.0445 0.0445192 0)
(51.0624 0.0225246 0)
(51.0628 0.0266231 0)
(51.0779 0.019568 0)
(51.0821 0.0131661 0)
(51.0935 0.00978615 0)
(51.1002 0.00403434 0)
(51.1099 0.00220338 0)
(51.1183 -0.000387625 0)
(51.1278 0.000260734 0)
(51.1372 0.00186647 0)
(51.1466 0.00662751 0)
(51.1554 0.013614 0)
(51.1628 0.0239656 0)
(51.1678 0.0369719 0)
(51.1689 0.0525641 0)
(51.1652 0.0692964 0)
(51.1557 0.0855504 0)
(51.1404 0.0989342 0)
(51.1205 0.107295 0)
(51.0982 0.109042 0)
(51.0761 0.103873 0)
(51.057 0.0928124 0)
(51.0423 0.0778872 0)
(51.0325 0.061493 0)
(51.0272 0.0457361 0)
(51.0249 0.0320944 0)
(51.0242 0.0212443 0)
(51.0238 0.0131831 0)
(51.023 0.00749701 0)
(51.0213 0.00366437 0)
(51.0186 0.00113119 0)
(51.0151 -0.000582308 0)
(51.0113 -0.00170764 0)
(51.0072 -0.00235762 0)
(51.0032 -0.00275466 0)
(51.0001 -0.0028523 0)
(50.9983 -0.00297731 0)
(50.9986 -0.00280632 0)
(51.0021 -0.00259715 0)
(51.0093 -0.00247558 0)
(51.0187 -0.00235169 0)
(51.0264 -0.0023182 0)
(51.0271 -0.00246803 0)
(51.0156 -0.00218597 0)
(50.914 -0.00162524 0)
(51.0447 0.0442896 0)
(51.0622 0.0225992 0)
(51.0627 0.0266696 0)
(51.0777 0.0197379 0)
(51.0819 0.0133184 0)
(51.0933 0.00996011 0)
(51.1 0.00415101 0)
(51.1097 0.00224455 0)
(51.1182 -0.000474273 0)
(51.1279 -7.75286e-06 0)
(51.1375 0.00137461 0)
(51.1473 0.00587358 0)
(51.1568 0.0126158 0)
(51.1651 0.0228035 0)
(51.1712 0.0358698 0)
(51.1739 0.0519188 0)
(51.1718 0.0697151 0)
(51.1638 0.0877931 0)
(51.1495 0.103777 0)
(51.1296 0.115289 0)
(51.1062 0.120244 0)
(51.0818 0.117722 0)
(51.0594 0.108222 0)
(51.0412 0.0935059 0)
(51.0283 0.0760432 0)
(51.0207 0.0582676 0)
(51.0172 0.042115 0)
(51.0162 0.0287277 0)
(51.0162 0.0184595 0)
(51.016 0.0110379 0)
(51.0152 0.00592014 0)
(51.0133 0.00254401 0)
(51.0106 0.000319578 0)
(51.0075 -0.00117757 0)
(51.0042 -0.00214284 0)
(51.0007 -0.00265326 0)
(50.9974 -0.00296981 0)
(50.9954 -0.0030119 0)
(50.9958 -0.00313642 0)
(50.9992 -0.00294812 0)
(51.0054 -0.00274529 0)
(51.0132 -0.00260645 0)
(51.0209 -0.00247058 0)
(51.0241 -0.00237414 0)
(51.0153 -0.00246424 0)
(50.972 -0.00198576 0)
(50.6253 -0.000935063 0)
(51.0449 0.0440363 0)
(51.062 0.0226537 0)
(51.0627 0.026704 0)
(51.0775 0.0198937 0)
(51.0817 0.01347 0)
(51.0931 0.0101357 0)
(51.0998 0.00428041 0)
(51.1096 0.00230726 0)
(51.1181 -0.000527907 0)
(51.1279 -0.000232165 0)
(51.1378 0.000933645 0)
(51.148 0.00517012 0)
(51.158 0.0116492 0)
(51.1671 0.0216254 0)
(51.1744 0.034657 0)
(51.1786 0.0510123 0)
(51.1781 0.0696731 0)
(51.1718 0.0893641 0)
(51.1589 0.107802 0)
(51.1396 0.122485 0)
(51.1154 0.130923 0)
(51.089 0.131579 0)
(51.0635 0.124325 0)
(51.0416 0.1105 0)
(51.0252 0.0925039 0)
(51.0146 0.0729994 0)
(51.0091 0.0543505 0)
(51.0073 0.0381873 0)
(51.0074 0.025307 0)
(51.0078 0.0157303 0)
(51.0077 0.00897133 0)
(51.0068 0.00441204 0)
(51.0049 0.00145139 0)
(51.0025 -0.0004857 0)
(51 -0.00179139 0)
(50.9974 -0.00258651 0)
(50.9944 -0.00296024 0)
(50.992 -0.00319841 0)
(50.9919 -0.00321571 0)
(50.9954 -0.0033361 0)
(51.0016 -0.00312829 0)
(51.0085 -0.00289125 0)
(51.0149 -0.00274961 0)
(51.0188 -0.00255512 0)
(51.0139 -0.00242282 0)
(50.9813 -0.00242477 0)
(50.7626 -0.00111391 0)
(50.2093 0.000105251 0)
(51.0451 0.0437622 0)
(51.0619 0.022688 0)
(51.0627 0.0267275 0)
(51.0773 0.0200362 0)
(51.0815 0.0136203 0)
(51.0929 0.0103126 0)
(51.0996 0.00442181 0)
(51.1094 0.00238918 0)
(51.118 -0.000550085 0)
(51.128 -0.000414348 0)
(51.138 0.000543505 0)
(51.1486 0.00452136 0)
(51.1591 0.0107249 0)
(51.169 0.0204526 0)
(51.1774 0.0333699 0)
(51.1829 0.0498966 0)
(51.1842 0.0692296 0)
(51.1797 0.0903081 0)
(51.1684 0.111004 0)
(51.15 0.128793 0)
(51.1257 0.140879 0)
(51.0978 0.145155 0)
(51.0694 0.140813 0)
(51.0438 0.128627 0)
(51.0233 0.110752 0)
(51.0092 0.0899628 0)
(51.0011 0.068985 0)
(50.9978 0.0499356 0)
(50.9975 0.0341003 0)
(50.9984 0.0219095 0)
(50.999 0.0130863 0)
(50.9989 0.00699657 0)
(50.9979 0.00295922 0)
(50.9962 0.000381465 0)
(50.9944 -0.00131019 0)
(50.9928 -0.00241356 0)
(50.9908 -0.00303471 0)
(50.9882 -0.0032712 0)
(50.9873 -0.00346564 0)
(50.9904 -0.00347058 0)
(50.9969 -0.00358181 0)
(51.004 -0.00331178 0)
(51.0094 -0.00304601 0)
(51.0125 -0.00286857 0)
(51.0095 -0.00263149 0)
(50.9889 -0.00244366 0)
(50.826 -0.00202202 0)
(50.3571 0.000595175 0)
(49.7512 0.000924439 0)
(51.0453 0.0434698 0)
(51.0617 0.0227039 0)
(51.0626 0.0267394 0)
(51.0772 0.0201664 0)
(51.0814 0.0137694 0)
(51.0927 0.0104902 0)
(51.0994 0.00457418 0)
(51.1093 0.00248948 0)
(51.1179 -0.00054364 0)
(51.128 -0.000555675 0)
(51.1382 0.000203391 0)
(51.1491 0.00392921 0)
(51.1601 0.00985123 0)
(51.1707 0.0193031 0)
(51.1801 0.0320413 0)
(51.187 0.0486214 0)
(51.19 0.068447 0)
(51.1874 0.0906842 0)
(51.1779 0.113407 0)
(51.1609 0.134158 0)
(51.137 0.149949 0)
(51.108 0.158186 0)
(51.0771 0.15737 0)
(51.0479 0.147595 0)
(51.0232 0.130594 0)
(51.0049 0.109105 0)
(50.9934 0.0861234 0)
(50.9879 0.0642264 0)
(50.9867 0.0452091 0)
(50.9876 0.0299758 0)
(50.989 0.0185955 0)
(50.9897 0.0105551 0)
(50.9895 0.00510181 0)
(50.9885 0.00154784 0)
(50.9874 -0.000698898 0)
(50.9868 -0.00214731 0)
(50.986 -0.00304575 0)
(50.9842 -0.00347744 0)
(50.9824 -0.00360674 0)
(50.9843 -0.00378543 0)
(50.9909 -0.00377977 0)
(50.999 -0.00383588 0)
(51.0045 -0.00349847 0)
(51.0064 -0.00318538 0)
(51.0034 -0.00298265 0)
(50.9879 -0.00269786 0)
(50.885 -0.00219656 0)
(50.4464 -0.000678141 0)
(49.8857 0.00206625 0)
(49.2814 0.0015793 0)
(51.0455 0.0431502 0)
(51.0616 0.0227042 0)
(51.0626 0.0267413 0)
(51.077 0.020284 0)
(51.0812 0.0139173 0)
(51.0925 0.0106687 0)
(51.0993 0.0047363 0)
(51.1092 0.00260683 0)
(51.1178 -0.000509932 0)
(51.128 -0.00065904 0)