/*--------------------------------*- C++ -*----------------------------------*\
  =========                 |
  \\      /  F ield         | OpenFOAM: The Open Source CFD Toolbox
   \\    /   O peration     | Website:  https://openfoam.org
    \\  /    A nd           | Version:  dev
     \\/     M anipulation  |
\*---------------------------------------------------------------------------*/
FoamFile
{
    version     2.0;
    format      ascii;
    class       volScalarField;
    location    "150";
    object      yPlus;
}
// * * * * * * * * * * * * * * * * * * * * * * * * * * * * * * * * * * * * * //

dimensions      [0 0 0 0 0 0 0];

internalField   uniform 0;

boundaryField
{
    inlet-l
    {
        type            calculated;
        value           uniform 0;
    }
    airfoil-l1
    {
        type            calculated;
        value           nonuniform List<scalar> 
71
(
191.468
214.736
249.821
283.624
310.192
327.591
337.902
343.078
344.609
343.631
340.832
336.971
331.613
325.197
318.12
310.652
302.962
295.155
287.289
279.44
271.673
264.007
256.474
249.103
241.922
234.954
228.221
221.736
215.544
209.675
204.165
199.056
194.394
190.217
186.588
183.54
181.096
179.245
177.948
177.155
176.751
176.657
176.834
177.132
177.541
177.907
178.275
178.526
178.657
178.616
178.42
177.982
177.279
176.379
175.236
173.819
172.21
170.36
168.346
166.135
163.811
161.341
158.775
156.14
153.442
150.732
148.013
145.33
142.663
140.153
137.518
)
;
    }
    empty-1
    {
        type            empty;
    }
    empty-2
    {
        type            empty;
    }
    wall-l1
    {
        type            calculated;
        value           nonuniform List<scalar> 
104
(
10.0172
10.4566
10.9477
11.4534
11.8698
12.17
12.4834
12.8383
13.1574
13.4481
13.7285
13.9831
14.2374
14.5019
14.767
15.0434
15.3302
15.6194
15.9096
16.1964
16.4753
16.7465
17.0093
17.2655
17.5161
17.762
18.0043
18.2429
18.477
18.7071
18.9339
19.1569
19.3767
19.5955
19.8125
20.0291
20.2453
20.461
20.6756
20.8881
21.0984
21.3048
21.5065
21.7036
21.896
22.0833
22.267
22.4476
22.6276
22.8066
22.9868
23.1703
23.3569
23.5483
23.744
23.9451
24.15
24.3594
24.572
24.7871
25.0037
25.2209
25.4375
25.654
25.869
26.0811
26.2918
26.5005
26.7064
26.9097
27.1114
27.3103
27.5075
27.7027
27.8962
28.0885
28.2784
28.4671
28.6545
28.8405
29.0251
29.2083
29.3899
29.5709
29.7502
29.9283
30.1049
30.2802
30.4536
30.6265
30.7969
30.9667
31.1339
31.3003
31.464
31.6266
31.7868
31.9443
32.1002
32.2541
32.4042
32.5534
32.6947
32.8554
)
;
    }
    airfoil-l2
    {
        type            calculated;
        value           nonuniform List<scalar> 
104
(
137.165
139.518
141.32
142.626
143.64
144.421
144.942
145.179
145.189
145.087
144.978
144.825
144.592
144.307
143.976
143.616
143.226
142.837
142.417
141.973
141.51
141.038
140.551
140.044
139.51
138.913
138.253
137.504
136.712
135.901
135.11
134.383
133.729
133.129
132.578
132.07
131.586
131.115
130.647
130.173
129.698
129.222
128.744
128.261
127.767
127.251
126.713
126.154
125.578
124.977
124.354
123.705
123.043
122.39
121.751
121.133
120.514
119.863
119.155
118.371
117.541
116.726
115.976
115.312
114.714
114.112
113.429
112.622
111.707
110.751
109.83
108.993
108.26
107.586
106.89
106.138
105.3
104.388
103.451
102.516
101.594
100.664
99.7183
98.72
97.6602
96.548
95.3916
94.1877
92.9337
91.6416
90.2943
88.8805
87.3978
85.8422
84.2092
82.4888
80.6685
78.735
76.6683
74.4128
71.9733
69.0627
66.1112
60.3328
)
;
    }
    empty-3
    {
        type            empty;
    }
    empty-4
    {
        type            empty;
    }
    wall-l2
    {
        type            calculated;
        value           nonuniform List<scalar> 
51
(
32.9654
33.0943
33.2148
33.328
33.4334
33.5313
33.6221
33.7047
33.7787
33.8444
33.9013
33.9491
33.9875
34.016
34.0342
34.0416
34.0378
34.0226
33.9955
33.9562
33.9045
33.84
33.7624
33.6716
33.5672
33.4493
33.3177
33.1722
33.013
32.8397
32.6523
32.4503
32.2336
32.0013
31.7528
31.487
31.203
30.8991
30.574
30.2257
29.8525
29.4521
29.0226
28.5615
28.0672
27.5383
26.9705
26.3733
25.7067
25.1254
24.1688
)
;
    }
    outlet-l
    {
        type            calculated;
        value           uniform 0;
    }
    empty-5
    {
        type            empty;
    }
    empty-6
    {
        type            empty;
    }
    outlet-h
    {
        type            calculated;
        value           uniform 0;
    }
    wall-h2
    {
        type            calculated;
        value           nonuniform List<scalar> 
51
(
33.414
33.5428
33.6635
33.7771
33.8831
33.9818
34.0735
34.1572
34.2327
34.3
34.3588
34.4089
34.4499
34.4813
34.5028
34.5137
34.5139
34.503
34.4805
34.4464
34.4002
34.3417
34.2707
34.187
34.0905
33.981
33.8585
33.7231
33.5745
33.4129
33.238
33.0497
32.8474
32.6307
32.3988
32.1507
31.8853
31.6012
31.2967
30.97
30.6192
30.2421
29.8365
29.4004
28.9318
28.4302
27.8916
27.3262
26.7004
26.1597
25.2991
)
;
    }
    empty-7
    {
        type            empty;
    }
    empty-8
    {
        type            empty;
    }
    airfoil-h2
    {
        type            calculated;
        value           nonuniform List<scalar> 
104
(
135.831
138.136
139.912
141.226
142.274
143.106
143.659
143.906
143.903
143.798
143.734
143.69
143.571
143.37
143.091
142.756
142.386
142.021
141.644
141.268
140.878
140.464
140.028
139.569
139.078
138.533
137.94
137.277
136.55
135.791
135.025
134.283
133.595
132.984
132.432
131.927
131.452
130.996
130.551
130.099
129.648
129.187
128.722
128.248
127.763
127.258
126.726
126.169
125.592
124.991
124.384
123.748
123.104
122.456
121.799
121.138
120.473
119.784
119.055
118.3
117.517
116.75
116.005
115.306
114.634
113.953
113.218
112.406
111.536
110.646
109.769
108.953
108.185
107.447
106.7
105.912
105.081
104.198
103.291
102.365
101.425
100.476
99.5006
98.4845
97.4308
96.337
95.1944
94.0062
92.7691
91.4794
90.1325
88.7216
87.2417
85.6925
84.0609
82.34
80.5144
78.5664
76.4759
74.1923
71.72
68.7642
65.7749
59.9006
)
;
    }
    wall-h1
    {
        type            calculated;
        value           nonuniform List<scalar> 
104
(
10.8472
11.1903
11.6186
12.0618
12.4674
12.7945
13.1022
13.4273
13.7322
14.0122
14.2841
14.5388
14.7927
15.0552
15.3199
15.5937
15.8771
16.1628
16.4495
16.7331
17.0081
17.2752
17.5334
17.7841
18.0287
18.2691
18.5059
18.74
18.9715
19.1995
19.4253
19.6476
19.8674
20.0849
20.2998
20.513
20.7246
20.9345
21.1427
21.3483
21.5524
21.7525
21.9503
22.144
22.3357
22.524
22.7103
22.8954
23.08
23.2655
23.4518
23.641
23.8337
24.0296
24.2291
24.433
24.6398
24.8501
25.0625
25.2777
25.4931
25.7092
25.9245
26.1399
26.3539
26.5651
26.775
26.9831
27.1882
27.3915
27.5928
27.7916
27.9879
28.1825
28.3752
28.5665
28.7554
28.9425
29.1289
29.3139
29.4966
29.678
29.8589
30.0376
30.2159
30.3925
30.5678
30.7418
30.914
31.0856
31.255
31.4237
31.5899
31.7554
31.9182
32.08
32.2389
32.3962
32.5518
32.7041
32.8541
33.0033
33.143
33.3037
)
;
    }
    empty-9
    {
        type            empty;
    }
    empty-10
    {
        type            empty;
    }
    inlet-h
    {
        type            calculated;
        value           uniform 0;
    }
    airfoil-h1
    {
        type            calculated;
        value           nonuniform List<scalar> 
71
(
189.603
210.018
244.519
279.066
307.406
326.789
338.851
345.419
347.992
347.74
345.434
341.795
336.722
330.392
323.251
315.611
307.669
299.552
291.322
283.084
274.894
266.78
258.792
250.961
243.295
235.844
228.627
221.681
215.023
208.688
202.725
197.183
192.109
187.55
183.576
180.215
177.503
175.449
174.004
173.101
172.652
172.548
172.721
173.074
173.572
174.04
174.489
174.851
175.107
175.227
175.137
174.874
174.357
173.611
172.608
171.33
169.838
168.122
166.19
164.099
161.847
159.464
156.975
154.408
151.782
149.112
146.463
143.821
141.218
138.775
136.194
)
;
    }
    empty-11
    {
        type            empty;
    }
    empty-12
    {
        type            empty;
    }
}


// ************************************************************************* //
