/*--------------------------------*- C++ -*----------------------------------*\
  =========                 |
  \\      /  F ield         | OpenFOAM: The Open Source CFD Toolbox
   \\    /   O peration     | Website:  https://openfoam.org
    \\  /    A nd           | Version:  dev
     \\/     M anipulation  |
\*---------------------------------------------------------------------------*/
FoamFile
{
    version     2.0;
    format      ascii;
    class       volScalarField;
    location    "350";
    object      nut;
}
// * * * * * * * * * * * * * * * * * * * * * * * * * * * * * * * * * * * * * //

dimensions      [0 2 -1 0 0 0 0];

internalField   nonuniform List<scalar> 
29380
(
9.02829e-06
8.9767e-06
9.56247e-06
9.01e-06
9.41567e-06
9.6239e-06
9.11346e-06
8.91692e-06
9.55908e-06
9.40027e-06
9.21503e-06
8.73675e-06
8.9882e-06
9.52743e-06
9.01737e-06
9.23994e-06
8.86115e-06
8.73174e-06
9.19663e-06
9.2297e-06
8.79217e-06
9.18116e-06
9.09128e-06
8.82567e-06
8.97044e-06
9.3061e-06
8.88543e-06
8.73196e-06
9.08825e-06
9.24497e-06
9.06104e-06
8.94366e-06
9.27704e-06
9.19112e-06
8.7239e-06
8.78546e-06
9.0182e-06
9.25582e-06
9.23309e-06
9.01799e-06
9.20256e-06
9.38102e-06
9.09208e-06
8.74025e-06
8.85715e-06
8.99931e-06
9.17606e-06
9.2561e-06
9.09619e-06
9.09661e-06
9.38984e-06
9.34906e-06
9.08048e-06
8.77452e-06
8.97124e-06
9.02677e-06
9.09296e-06
9.17814e-06
9.13325e-06
9.00677e-06
9.23952e-06
9.39363e-06
9.2893e-06
9.0898e-06
8.88467e-06
9.0843e-06
9.07811e-06
9.05521e-06
9.09352e-06
9.13788e-06
8.98082e-06
9.04663e-06
9.26665e-06
9.29219e-06
9.28175e-06
9.10426e-06
8.98352e-06
9.28677e-06
9.12886e-06
9.05952e-06
9.05785e-06
9.13348e-06
9.02897e-06
8.93436e-06
9.09044e-06
9.18212e-06
9.24309e-06
9.23972e-06
9.09872e-06
9.25047e-06
9.50294e-06
9.16024e-06
9.0791e-06
9.06856e-06
9.12853e-06
9.11445e-06
8.95101e-06
8.98232e-06
9.07636e-06
9.10453e-06
9.17628e-06
9.16461e-06
9.1798e-06
9.48085e-06
9.74329e-06
9.16231e-06
9.09458e-06
9.09405e-06
9.11838e-06
9.17925e-06
9.05613e-06
8.98389e-06
9.04281e-06
9.01565e-06
9.03912e-06
9.07496e-06
9.06337e-06
9.23883e-06
9.88037e-06
9.46607e-06
9.13684e-06
9.10399e-06
9.10933e-06
9.10116e-06
9.18619e-06
9.1635e-06
9.05902e-06
9.07342e-06
9.03723e-06
8.97891e-06
8.95141e-06
8.88539e-06
8.99727e-06
9.40478e-06
9.88814e-06
9.12316e-06
9.09813e-06
9.11319e-06
9.11052e-06
9.08504e-06
9.14258e-06
9.20546e-06
9.1375e-06
9.11829e-06
9.12305e-06
9.04702e-06
8.93969e-06
8.77609e-06
8.76642e-06
8.96278e-06
9.61992e-06
9.22714e-06
9.51534e-06
9.06697e-06
9.1234e-06
9.10711e-06
9.08098e-06
9.08757e-06
9.17344e-06
9.16795e-06
9.13574e-06
9.18514e-06
9.17441e-06
9.0753e-06
8.84846e-06
8.66133e-06
8.66459e-06
9.2011e-06
9.15982e-06
9.00906e-06
1.01073e-05
9.05901e-06
9.12836e-06
9.10752e-06
9.09199e-06
9.05876e-06
9.10918e-06
9.14594e-06
9.11965e-06
9.17415e-06
9.24726e-06
9.25982e-06
9.09055e-06
8.76694e-06
8.58893e-06
8.85954e-06
9.09212e-06
8.4595e-06
9.67888e-06
1.01728e-05
9.07515e-06
9.12137e-06
9.11176e-06
9.11014e-06
9.06746e-06
9.06331e-06
9.1036e-06
9.09257e-06
9.11021e-06
9.20784e-06
9.34711e-06
9.3592e-06
9.05079e-06
8.74557e-06
8.71483e-06
9.08724e-06
8.35197e-06
8.62239e-06
1.03794e-05
9.51264e-06
9.10168e-06
9.10339e-06
9.11419e-06
9.12315e-06
9.09786e-06
9.0595e-06
9.07704e-06
9.07993e-06
9.05152e-06
9.09528e-06
9.26819e-06
9.47673e-06
9.36137e-06
9.04327e-06
8.79461e-06
9.13545e-06
8.65742e-06
8.01475e-06
9.40507e-06
1.01432e-05
8.85553e-06
9.1205e-06
9.08428e-06
9.11052e-06
9.1236e-06
9.1245e-06
9.08708e-06
9.08041e-06
9.08977e-06
9.04107e-06
9.00035e-06
9.08505e-06
9.36807e-06
9.5163e-06
9.32499e-06
9.01125e-06
9.20471e-06
9.188e-06
8.02013e-06
8.43866e-06
9.96789e-06
9.14952e-06
8.71371e-06
9.12189e-06
9.07624e-06
9.10221e-06
9.11319e-06
9.1316e-06
9.11816e-06
9.10254e-06
9.1109e-06
9.07807e-06
8.98843e-06
8.93015e-06
9.11741e-06
9.43292e-06
9.44866e-06
9.21739e-06
9.24119e-06
9.65656e-06
8.56576e-06
7.92062e-06
9.36151e-06
9.58822e-06
8.30291e-06
9.03297e-06
9.10989e-06
9.08488e-06
9.09521e-06
9.10003e-06
9.12047e-06
9.13117e-06
9.12182e-06
9.12558e-06
9.12768e-06
9.05689e-06
8.90124e-06
8.89298e-06
9.18694e-06
9.37488e-06
9.2956e-06
9.1999e-06
9.81704e-06
9.36011e-06
8.01266e-06
8.68051e-06
9.82138e-06
8.67022e-06
8.14231e-06
9.4516e-06
9.09685e-06
9.10498e-06
9.09512e-06
9.09247e-06
9.10352e-06
9.12315e-06
9.12445e-06
9.12412e-06
9.15277e-06
9.14798e-06
9.00103e-06
8.82235e-06
8.94364e-06
9.18466e-06
9.23101e-06
9.08231e-06
9.6072e-06
9.98066e-06
8.62972e-06
8.23786e-06
9.67357e-06
9.46783e-06
8.01974e-06
8.55352e-06
9.69051e-06
9.09291e-06
9.12378e-06
9.10252e-06
9.09402e-06
9.09287e-06
9.10598e-06
9.11236e-06
9.1104e-06
9.14089e-06
9.19724e-06
9.14948e-06
8.9214e-06
8.83628e-06
9.00937e-06
9.10696e-06
8.94828e-06
9.17284e-06
1.01016e-05
9.45639e-06
8.21947e-06
9.18117e-06
1.01428e-05
8.76376e-06
7.9429e-06
9.21534e-06
9.61056e-06
9.09893e-06
9.12952e-06
9.11229e-06
9.10214e-06
9.09292e-06
9.09376e-06
9.09772e-06
9.09628e-06
9.10788e-06
9.17923e-06
9.24689e-06
9.10425e-06
8.89369e-06
8.93935e-06
9.02863e-06
8.88337e-06
8.75798e-06
9.70745e-06
1.00566e-05
8.61597e-06
8.61713e-06
1.0189e-05
9.87121e-06
8.26179e-06
8.35211e-06
9.72194e-06
9.23682e-06
9.1078e-06
9.11923e-06
9.11714e-06
9.11071e-06
9.10026e-06
9.09282e-06
9.09152e-06
9.09133e-06
9.0805e-06
9.1182e-06
9.24232e-06
9.2501e-06
9.04643e-06
8.97982e-06
9.04421e-06
8.94113e-06
8.56161e-06
9.07835e-06
1.01192e-05
9.2318e-06
8.29317e-06
9.54831e-06
1.05811e-05
9.26411e-06
8.16541e-06
8.96282e-06
9.76179e-06
8.78929e-06
9.11141e-06
9.10036e-06
9.11303e-06
9.11408e-06
9.10828e-06
9.10013e-06
9.09599e-06
9.09658e-06
9.07548e-06
9.06158e-06
9.15907e-06
9.28289e-06
9.18705e-06
9.06946e-06
9.12057e-06
9.10108e-06
8.65321e-06
8.56976e-06
9.67027e-06
9.7558e-06
8.37698e-06
8.65536e-06
1.03599e-05
1.02952e-05
8.74175e-06
8.44584e-06
9.42093e-06
9.31432e-06
8.54997e-06
9.10714e-06
9.08536e-06
9.10247e-06
9.11058e-06
9.11202e-06
9.10832e-06
9.10531e-06
9.10569e-06
9.09058e-06
9.04361e-06
9.06408e-06
9.21077e-06
9.24199e-06
9.13592e-06
9.18027e-06
9.27251e-06
8.95957e-06
8.40548e-06
9.02531e-06
9.92303e-06
8.82862e-06
8.04542e-06
9.38212e-06
1.0611e-05
9.67844e-06
8.56346e-06
8.92173e-06
9.43415e-06
8.72155e-06
8.67297e-06
9.09894e-06
9.08322e-06
9.09288e-06
9.10324e-06
9.11041e-06
9.1118e-06
9.11183e-06
9.11126e-06
9.11071e-06
9.06632e-06
9.01527e-06
9.10171e-06
9.20834e-06
9.14685e-06
9.16766e-06
9.34891e-06
9.30536e-06
8.6076e-06
8.54155e-06
9.68201e-06
9.4208e-06
8.01633e-06
8.31824e-06
9.98872e-06
1.0314e-05
9.15934e-06
8.77616e-06
9.27887e-06
9.01249e-06
8.53981e-06
9.0115e-06
9.09332e-06
9.094e-06
9.09127e-06
9.09759e-06
9.10575e-06
9.10974e-06
9.11187e-06
9.11036e-06
9.12125e-06
9.10593e-06
9.02854e-06
9.02607e-06
9.1354e-06
9.12101e-06
9.09218e-06
9.2819e-06
9.50436e-06
9.02388e-06
8.41736e-06
9.21125e-06
9.8407e-06
8.55701e-06
7.75542e-06
8.8971e-06
1.01892e-05
9.77987e-06
8.99856e-06
9.19831e-06
9.24024e-06
8.60381e-06
9.06192e-06
9.115e-06
9.09415e-06
9.10948e-06
9.09904e-06
9.0977e-06
9.10155e-06
9.10509e-06
9.10726e-06
9.10561e-06
9.11786e-06
9.13406e-06
9.07949e-06
9.01446e-06
9.07728e-06
9.09862e-06
9.0152e-06
9.11653e-06
9.4677e-06
9.41206e-06
8.64369e-06
8.77587e-06
9.87058e-06
9.38413e-06
7.91684e-06
8.01732e-06
9.42359e-06
9.97346e-06
9.34965e-06
9.21394e-06
9.49242e-06
8.82583e-06
8.73824e-06
9.86276e-06
8.71003e-06
9.10041e-06
9.11929e-06
9.11083e-06
9.10338e-06
9.10041e-06
9.10156e-06
9.10246e-06
9.10177e-06
9.10678e-06
9.1369e-06
9.12876e-06
9.05248e-06
9.0582e-06
9.10303e-06
8.99744e-06
8.95718e-06
9.25088e-06
9.57302e-06
9.05009e-06
8.56751e-06
9.52601e-06
1.00468e-05
8.68573e-06
7.76498e-06
8.54577e-06
9.62942e-06
9.54535e-06
9.23454e-06
9.6095e-06
9.30736e-06
8.43041e-06
9.53585e-06
1.00805e-05
8.07135e-06
9.10778e-06
9.11789e-06
9.11843e-06
9.11036e-06
9.1027e-06
9.10118e-06
9.10073e-06
9.10165e-06
9.0977e-06
9.12011e-06
9.14951e-06
9.10319e-06
9.0694e-06
9.12538e-06
9.05312e-06
8.89545e-06
9.00026e-06
9.46456e-06
9.40232e-06
8.63527e-06
9.02581e-06
1.01777e-05
9.66182e-06
8.19646e-06
8.0389e-06
9.01634e-06
9.46447e-06
9.19458e-06
9.46635e-06
9.75727e-06
8.66633e-06
8.57683e-06
1.05181e-05
9.58482e-06
7.3271e-06
9.11196e-06
9.1077e-06
9.11669e-06
9.1135e-06
9.10664e-06
9.10353e-06
9.10228e-06
9.10437e-06
9.09617e-06
9.09971e-06
9.13968e-06
9.13556e-06
9.08841e-06
9.13879e-06
9.14285e-06
8.95614e-06
8.85189e-06
9.20255e-06
9.53203e-06
8.89923e-06
8.63279e-06
9.74642e-06
1.03068e-05
9.07206e-06
8.10022e-06
8.51204e-06
9.1967e-06
9.11885e-06
9.13834e-06
9.81839e-06
9.32365e-06
8.1418e-06
9.46407e-06
1.1129e-05
8.82825e-06
6.03303e-06
9.11116e-06
9.09654e-06
9.10718e-06
9.11063e-06
9.10952e-06
9.10663e-06
9.10507e-06
9.10695e-06
9.10088e-06
9.08889e-06
9.11517e-06
9.1401e-06
9.09997e-06
9.12522e-06
9.20482e-06
9.0904e-06
8.86068e-06
8.95765e-06
9.4242e-06
9.20672e-06
8.51226e-06
9.05553e-06
1.02722e-05
9.93124e-06
8.64732e-06
8.35152e-06
8.9212e-06
9.07482e-06
8.85099e-06
9.43381e-06
9.87739e-06
8.52761e-06
8.34026e-06
1.07676e-05
1.14182e-05
7.57718e-06
4.10655e-06
9.10634e-06
9.0918e-06
9.09672e-06
9.10413e-06
9.10941e-06
9.10841e-06
9.10688e-06
9.10714e-06
9.10656e-06
9.09062e-06
9.09424e-06
9.12611e-06
9.10347e-06
9.09126e-06
9.19998e-06
9.21218e-06
8.98995e-06
8.84663e-06
9.19408e-06
9.41019e-06
8.68174e-06
8.49481e-06
9.64853e-06
1.03069e-05
9.38533e-06
8.55981e-06
8.76936e-06
9.0892e-06
8.79187e-06
8.90595e-06
9.86673e-06
9.36044e-06
8.00289e-06
9.33085e-06
1.21817e-05
1.15905e-05
5.18948e-06
2.54749e-06
9.10002e-06
9.09562e-06
9.09224e-06
9.09898e-06
9.10643e-06
9.1079e-06
9.10687e-06
9.10509e-06
9.10878e-06
9.09921e-06
9.0861e-06
9.10858e-06
9.10612e-06
9.06151e-06
9.13746e-06
9.25408e-06
9.14805e-06
8.88797e-06
8.98725e-06
9.43705e-06
9.02807e-06
8.31174e-06
8.85599e-06
1.00319e-05
9.92773e-06
8.99489e-06
8.77568e-06
9.12265e-06
8.97554e-06
8.60913e-06
9.33668e-06
9.93739e-06
8.49428e-06
8.12547e-06
1.08781e-05
1.39471e-05
1.10442e-05
2.49314e-06
2.10277e-06
9.09489e-06
9.10408e-06
9.09601e-06
9.09898e-06
9.10257e-06
9.1056e-06
9.10561e-06
9.10278e-06
9.10693e-06
9.10692e-06
9.08934e-06
9.09708e-06
9.11212e-06
9.05778e-06
9.06278e-06
9.20629e-06
9.2468e-06
9.02051e-06
8.89331e-06
9.31209e-06
9.36576e-06
8.538e-06
8.31849e-06
9.34009e-06
1.00066e-05
9.42823e-06
8.90058e-06
9.11566e-06
9.24614e-06
8.70677e-06
8.75123e-06
9.81728e-06
9.3109e-06
7.7991e-06
8.87502e-06
1.31034e-05
1.61693e-05
8.74817e-06
9.80912e-07
2.72499e-06
9.09305e-06
9.11068e-06
9.10452e-06
9.10392e-06
9.10033e-06
9.103e-06
9.10423e-06
9.10211e-06
9.10361e-06
9.10961e-06
9.09738e-06
9.09315e-06
9.11829e-06
9.08255e-06
9.0227e-06
9.11311e-06
9.24928e-06
9.15477e-06
8.92022e-06
9.1238e-06
9.5295e-06
9.01592e-06
8.24594e-06
8.65436e-06
9.63722e-06
9.65536e-06
9.07351e-06
9.05138e-06
9.39663e-06
9.08384e-06
8.53005e-06
9.21612e-06
9.78958e-06
8.28095e-06
7.54519e-06
1.02537e-05
1.64837e-05
1.73879e-05
5.2756e-06
5.98397e-07
1.86046e-05
9.09544e-06
9.11109e-06
9.11166e-06
9.10999e-06
9.10104e-06
9.10161e-06
9.10348e-06
9.10336e-06
9.1018e-06
9.10804e-06
9.10452e-06
9.09394e-06
9.1183e-06
9.11837e-06
9.03535e-06
9.03547e-06
9.17902e-06
9.22562e-06
9.01808e-06
8.96736e-06
9.46164e-06
9.47678e-06
8.60398e-06
8.30346e-06
9.07746e-06
9.59827e-06
9.22668e-06
8.97317e-06
9.32518e-06
9.45046e-06
8.76613e-06
8.69095e-06
9.65438e-06
9.08133e-06
7.33237e-06
7.72323e-06
1.25957e-05
2.0434e-05
1.54179e-05
2.72649e-06
2.41781e-07
0.000768827
9.10155e-06
9.10596e-06
9.11314e-06
9.11283e-06
9.10406e-06
9.10211e-06
9.10347e-06
9.10529e-06
9.10253e-06
9.10535e-06
9.10856e-06
9.09678e-06
9.10974e-06
9.14166e-06
9.08402e-06
9.01172e-06
9.09144e-06
9.21904e-06
9.12151e-06
8.90199e-06
9.23335e-06
9.68011e-06
9.16524e-06
8.39374e-06
8.63325e-06
9.332e-06
9.31348e-06
8.94555e-06
9.10022e-06
9.55221e-06
9.23642e-06
8.60538e-06
9.19211e-06
9.6339e-06
8.01886e-06
6.63209e-06
8.39798e-06
1.61252e-05
2.24273e-05
1.09412e-05
1.98146e-06
7.63006e-09
0.00337255
9.10902e-06
9.09992e-06
9.10915e-06
9.11085e-06
9.10735e-06
9.10403e-06
9.10389e-06
9.10631e-06
9.10459e-06
9.10383e-06
9.10982e-06
9.10066e-06
9.09711e-06
9.13943e-06
9.13353e-06
9.04147e-06
9.03478e-06
9.16324e-06
9.18512e-06
8.93639e-06
8.98541e-06
9.55519e-06
9.6157e-06
8.81804e-06
8.49112e-06
9.0189e-06
9.31604e-06
9.00116e-06
8.88328e-06
9.35323e-06
9.58254e-06
8.93741e-06
8.85858e-06
9.69487e-06
9.05564e-06
6.93112e-06
6.19398e-06
9.93897e-06
1.9943e-05
2.04586e-05
6.78646e-06
1.09028e-05
0.0014344
0.00609331
9.11441e-06
9.09786e-06
9.10334e-06
9.10605e-06
9.10894e-06
9.10617e-06
9.10445e-06
9.10579e-06
9.10599e-06
9.10366e-06
9.1091e-06
9.10512e-06
9.08846e-06
9.11662e-06
9.15511e-06
9.0953e-06
9.02716e-06
9.09973e-06
9.19674e-06
9.03671e-06
8.84138e-06
9.22637e-06
9.72838e-06
9.3227e-06
8.66443e-06
8.80914e-06
9.24623e-06
9.11751e-06
8.80253e-06
9.02606e-06
9.57764e-06
9.38098e-06
8.87097e-06
9.44355e-06
9.82532e-06
8.13641e-06
5.97214e-06
6.28236e-06
1.26704e-05
2.18773e-05
1.57226e-05
2.3393e-06
0.000682434
0.0045568
0.00808103
9.11451e-06
9.10143e-06
9.09967e-06
9.1021e-06
9.10812e-06
9.10736e-06
9.10498e-06
9.10435e-06
9.10567e-06
9.10373e-06
9.10684e-06
9.1089e-06
9.0891e-06
9.09024e-06
9.14266e-06
9.13831e-06
9.057e-06
9.05822e-06
9.16945e-06
9.14754e-06
8.85099e-06
8.90437e-06
9.49902e-06
9.63402e-06
9.01994e-06
8.77407e-06
9.1391e-06
9.23376e-06
8.88521e-06
8.7843e-06
9.27978e-06
9.59421e-06
9.1296e-06
9.19296e-06
1.00219e-05
9.50173e-06
7.13045e-06
5.36188e-06
7.37282e-06
1.59031e-05
2.02283e-05
9.94461e-06
0.000173331
0.00343437
0.00692675
0.0095737
9.10852e-06
9.10788e-06
9.09979e-06
9.10136e-06
9.1057e-06
9.10714e-06
9.10538e-06
9.1032e-06
9.10413e-06
9.10328e-06
9.1036e-06
9.11016e-06
9.09786e-06
9.07647e-06
9.11149e-06
9.15091e-06
9.09842e-06
9.04785e-06
9.12552e-06
9.21777e-06
8.98151e-06
8.74998e-06
9.118e-06
9.61646e-06
9.35261e-06
8.89273e-06
9.03823e-06
9.29072e-06
9.06728e-06
8.73991e-06
8.92864e-06
9.46027e-06
9.37144e-06
9.10225e-06
9.77732e-06
1.03101e-05
8.86811e-06
6.24164e-06
5.44308e-06
9.63734e-06
1.76848e-05
1.50107e-05
1.37473e-05
0.00211731
0.0061318
0.00870879
0.010659
9.09926e-06
9.1126e-06
9.1026e-06
9.10338e-06
9.10327e-06
9.10587e-06
9.10554e-06
9.10315e-06
9.10275e-06
9.10256e-06
9.10055e-06
9.10805e-06
9.1084e-06
9.08069e-06
9.08396e-06
9.1355e-06
9.12865e-06
9.06199e-06
9.08467e-06
9.22243e-06
9.14671e-06
8.80509e-06
8.8157e-06
9.34251e-06
9.49604e-06
9.07887e-06
8.97839e-06
9.26481e-06
9.24726e-06
8.87416e-06
8.73201e-06
9.13458e-06
9.40217e-06
9.13095e-06
9.40356e-06
1.03448e-05
1.02076e-05
8.03427e-06
5.7157e-06
6.49656e-06
1.24028e-05
1.67535e-05
6.0152e-06
0.000997674
0.00513489
0.00810139
0.0100347
0.0114065
9.09141e-06
9.11234e-06
9.10583e-06
9.10584e-06
9.10207e-06
9.10439e-06
9.10539e-06
9.10406e-06
9.10259e-06
9.10244e-06
9.09918e-06
9.1037e-06
9.11409e-06
9.09647e-06
9.07444e-06
9.1086e-06
9.13786e-06
9.08752e-06
9.05965e-06
9.17073e-06
9.25704e-06
8.99925e-06
8.72677e-06
9.01159e-06
9.41322e-06
9.23182e-06
8.97383e-06
9.17534e-06
9.34505e-06
9.08725e-06
8.75162e-06
8.85829e-06
9.23549e-06
9.16123e-06
9.11308e-06
9.89656e-06
1.06154e-05
9.65286e-06
7.13181e-06
5.85722e-06
8.63105e-06
1.47018e-05
1.14083e-05
0.000313082
0.00395977
0.00734845
0.00958076
0.0109827
0.0118765
9.09063e-06
9.10792e-06
9.10781e-06
9.10682e-06
9.10235e-06
9.10344e-06
9.10496e-06
9.10518e-06
9.10365e-06
9.10332e-06
9.10025e-06
9.09971e-06
9.11239e-06
9.11199e-06
9.08307e-06
9.08742e-06
9.12907e-06
9.11197e-06
9.05582e-06
9.09696e-06
9.26689e-06
9.20465e-06
8.84798e-06
8.80579e-06
9.1976e-06
9.28845e-06
9.0166e-06
9.06706e-06
9.33383e-06
9.27108e-06
8.92051e-06
8.76749e-06
9.02811e-06
9.13306e-06
8.95782e-06
9.36399e-06
1.02961e-05
1.03808e-05
8.64794e-06
6.51057e-06
6.99926e-06
1.1918e-05
1.56912e-05
3.64305e-05
0.00262723
0.00650077
0.00901734
0.0106571
0.0116183
0.0121218
9.0969e-06
9.10322e-06
9.1083e-06
9.10634e-06
9.10355e-06
9.10326e-06
9.10444e-06
9.10573e-06
9.10508e-06
9.10477e-06
9.10308e-06
9.0984e-06
9.10581e-06
9.11842e-06
9.0997e-06
9.08051e-06
9.11192e-06
9.12692e-06
9.07121e-06
9.0402e-06
9.19218e-06
9.31146e-06
9.07143e-06
8.79826e-06
8.99107e-06
9.24777e-06
9.08356e-06
8.9854e-06
9.23623e-06
9.3613e-06
9.12321e-06
8.84742e-06
8.9152e-06
9.07919e-06
8.91152e-06
8.9739e-06
9.74307e-06
1.03554e-05
9.55035e-06
7.48745e-06
6.60071e-06
9.59761e-06
1.6662e-05
1.44019e-05
0.00141255
0.00554985
0.00838003
0.0102495
0.0113994
0.0119987
0.0121879
9.10647e-06
9.10157e-06
9.10756e-06
9.10575e-06
9.10473e-06
9.10362e-06
9.10407e-06
9.10545e-06
9.10587e-06
9.10581e-06
9.10595e-06
9.10021e-06
9.09935e-06
9.11451e-06
9.1127e-06
9.08635e-06
9.09609e-06
9.12896e-06
9.09717e-06
9.02469e-06
9.08985e-06
9.2855e-06
9.25818e-06
8.94541e-06
8.89394e-06
9.15594e-06
9.14716e-06
8.95912e-06
9.10116e-06
9.34743e-06
9.27263e-06
8.99869e-06
8.91889e-06
9.05723e-06
8.94837e-06
8.77888e-06
9.26954e-06
1.00788e-05
9.92479e-06
8.2508e-06
6.61047e-06
7.72469e-06
1.44801e-05
2.18534e-05
0.000612547
0.00449931
0.00765918
0.00978109
0.011121
0.0118678
0.012174
0.0121142
9.11502e-06
9.10411e-06
9.10611e-06
9.10628e-06
9.10533e-06
9.10412e-06
9.10396e-06
9.10465e-06
9.10561e-06
9.10577e-06
9.10723e-06
9.10364e-06
9.09683e-06
9.10536e-06
9.11611e-06
9.09778e-06
9.08749e-06
9.11968e-06
9.12129e-06
9.05032e-06
9.01832e-06
9.17249e-06
9.3182e-06
9.13513e-06
8.92466e-06
9.06914e-06
9.18506e-06
8.9933e-06
8.98177e-06
9.25354e-06
9.33917e-06
9.13206e-06
8.97536e-06
9.07377e-06
9.05088e-06
8.76026e-06
8.94439e-06
9.81286e-06
1.01954e-05
8.92604e-06
6.78245e-06
6.19996e-06
1.02927e-05
2.26739e-05
0.000229634
0.00333069
0.00687301
0.00924341
0.0107911
0.011696
0.012115
0.0121876
0.011934
9.11571e-06
9.10791e-06
9.10424e-06
9.10749e-06
9.10518e-06
9.10445e-06
9.10406e-06
9.10387e-06
9.10461e-06
9.10476e-06
9.10642e-06
9.10639e-06
9.09876e-06
9.0977e-06
9.1113e-06
9.10757e-06
9.08747e-06
9.10484e-06
9.13285e-06
9.09656e-06
9.00656e-06
9.05353e-06
9.25161e-06
9.25859e-06
9.03286e-06
9.02278e-06
9.18649e-06
9.06988e-06
8.92064e-06
9.11865e-06
9.33029e-06
9.21962e-06
9.02106e-06
9.0799e-06
9.17519e-06
8.8862e-06
8.74868e-06
9.50805e-06
1.0465e-05
9.86089e-06
7.42468e-06
5.33471e-06
6.21291e-06
1.53769e-05
7.06092e-05
0.00210725
0.00603138
0.00864493
0.0104038
0.0114799
0.0120302
0.0121865
0.0120763
0.0116761
9.1078e-06
9.11037e-06
9.10195e-06
9.10782e-06
9.1047e-06
9.10458e-06
9.10424e-06
9.10353e-06
9.10354e-06
9.1035e-06
9.10435e-06
9.10698e-06
9.10285e-06
9.09543e-06
9.10376e-06
9.11196e-06
9.09382e-06
9.09192e-06
9.12817e-06
9.13603e-06
9.04616e-06
8.99147e-06
9.12755e-06
9.26878e-06
9.14284e-06
9.02248e-06
9.1547e-06
9.15436e-06
8.93847e-06
8.98829e-06
9.26033e-06
9.27577e-06
9.05293e-06
9.03337e-06
9.24119e-06
9.09983e-06
8.69445e-06
9.0792e-06
1.0431e-05
1.09753e-05
8.92447e-06
5.60156e-06
3.91811e-06
6.64999e-06
2.15525e-05
0.0010379
0.00507688
0.00799237
0.00996087
0.0112164
0.0119073
0.0121723
0.0121216
0.0118722
0.0113649
9.09689e-06
9.10916e-06
9.10068e-06
9.10658e-06
9.10432e-06
9.10465e-06
9.10439e-06
9.10364e-06
9.10303e-06
9.10277e-06
9.10245e-06
9.10551e-06
9.10609e-06
9.09817e-06
9.09858e-06
9.11092e-06
9.10242e-06
9.08659e-06
9.11214e-06
9.14995e-06
9.10428e-06
9.00274e-06
9.02676e-06
9.19239e-06
9.19948e-06
9.05289e-06
9.10532e-06
9.20902e-06
9.02548e-06
8.90838e-06
9.14422e-06
9.30684e-06
9.11278e-06
8.95823e-06
9.18273e-06
9.29606e-06
8.81356e-06
8.62882e-06
9.82416e-06
1.15901e-05
1.11202e-05
7.44948e-06
3.64677e-06
2.43456e-06
5.55868e-06
0.000343056
0.0038977
0.007263
0.00946657
0.0109039
0.0117455
0.0121251
0.0121642
0.0119541
0.0116023
0.0110218
9.09071e-06
9.10574e-06
9.10151e-06
9.10382e-06
9.10417e-06
9.10475e-06
9.1045e-06
9.10406e-06
9.10319e-06
9.10286e-06
9.10173e-06
9.10329e-06
9.1068e-06
9.10278e-06
9.09767e-06
9.10673e-06
9.10909e-06
9.0901e-06
9.0948e-06
9.13667e-06
9.14641e-06
9.06155e-06
8.99431e-06
9.09475e-06
9.19191e-06
9.09264e-06
9.06046e-06
9.21014e-06
9.14137e-06
8.91119e-06
9.01113e-06
9.2895e-06
9.22235e-06
8.93607e-06
9.01758e-06
9.35169e-06
9.07487e-06
8.39751e-06
8.84217e-06
1.1029e-05
1.28643e-05
1.08738e-05
5.58582e-06
1.70628e-06
8.5865e-07
1.83556e-05
0.00251658
0.00641288
0.00891212
0.0105438
0.0115415
0.0120462
0.0121779
0.0120418
0.0117129
0.0112903
0.0106651
9.09379e-06
9.10309e-06
9.1045e-06
9.10158e-06
9.10436e-06
9.1049e-06
9.10456e-06
9.10448e-06
9.1038e-06
9.10348e-06
9.10227e-06
9.10174e-06
9.10529e-06
9.10604e-06
9.09985e-06
9.10209e-06
9.11124e-06
9.09896e-06
9.08516e-06
9.10925e-06
9.15504e-06
9.12458e-06
9.02647e-06
9.03227e-06
9.14564e-06
9.12515e-06
9.03944e-06
9.16064e-06
9.23057e-06
8.99733e-06
8.90977e-06
9.19812e-06
9.33837e-06
9.0341e-06
8.85783e-06
9.21355e-06
9.34056e-06
8.5504e-06
8.03802e-06
9.47724e-06
1.27128e-05
1.42801e-05
1.03014e-05
3.42068e-06
3.44025e-07
1.60467e-08
0.00124486
0.00541953
0.00827354
0.010133
0.0112947
0.0119317
0.0121663
0.0121044
0.011836
0.0114231
0.0109566
0.010311
9.10388e-06
9.10298e-06
9.10809e-06
9.10188e-06
9.10468e-06
9.10495e-06
9.10462e-06
9.10467e-06
9.10443e-06
9.10412e-06
9.10339e-06
9.10158e-06
9.10309e-06
9.10656e-06
9.10269e-06
9.09899e-06
9.10877e-06
9.1075e-06
9.08641e-06
9.08528e-06
9.13483e-06
9.15827e-06
9.08712e-06
9.02507e-06
9.0966e-06
9.14196e-06
9.05e-06
9.08896e-06
9.25034e-06
9.12782e-06
8.88913e-06
9.04819e-06
9.37346e-06
9.23438e-06
8.83637e-06
8.96196e-06
9.43055e-06
9.02446e-06
7.86102e-06
7.90442e-06
1.0588e-05
1.4962e-05
1.60576e-05
9.49671e-06
1.47646e-06
4.60612e-09
0.000440021
0.00429112
0.00753409
0.00965904
0.0110035
0.0117797
0.0121248
0.0121467
0.0119374
0.0115737
0.0111062
0.0106191
0.00997386
9.11331e-06
9.10461e-06
9.1098e-06
9.10499e-06
9.1049e-06
9.10486e-06
9.10461e-06
9.10472e-06
9.10468e-06
9.10443e-06
9.10426e-06
9.10246e-06
9.10169e-06
9.10496e-06
9.10437e-06
9.09823e-06
9.10385e-06
9.11132e-06
9.09529e-06
9.07631e-06
9.10418e-06
9.15401e-06
9.13624e-06
9.05828e-06
9.06853e-06
9.14146e-06
9.08441e-06
9.03331e-06
9.19564e-06
9.23833e-06
8.96658e-06
8.90636e-06
9.27e-06
9.42396e-06
9.00779e-06
8.7701e-06
9.26672e-06
9.52252e-06
8.39764e-06
7.16203e-06
8.02704e-06
1.21956e-05
1.81541e-05
1.89533e-05
8.9306e-06
5.68588e-07
8.23258e-05
0.00307563
0.00671347
0.00911012
0.0106614
0.0115883
0.0120513
0.0121645
0.0120227
0.0117054
0.0112779
0.0107812
0.0102934
0.00966593
9.11472e-06
9.10567e-06
9.10802e-06
9.10902e-06
9.10501e-06
9.1047e-06
9.10453e-06
9.10455e-06
9.10471e-06
9.10435e-06
9.10455e-06
9.1036e-06
9.10157e-06
9.10287e-06
9.10447e-06
9.0995e-06
9.09943e-06
9.10956e-06
9.10529e-06
9.08303e-06
9.08161e-06
9.12538e-06
9.15232e-06
9.10129e-06
9.06567e-06
9.12685e-06
9.12348e-06
9.02043e-06
9.10196e-06
9.27341e-06
9.10858e-06
8.85242e-06
9.06171e-06
9.46516e-06
9.2952e-06
8.78598e-06
8.9582e-06
9.69376e-06
9.33345e-06
7.52955e-06
6.51668e-06
8.33479e-06
1.45556e-05
2.34754e-05
2.45476e-05
1.03289e-05
7.56809e-06
0.00190613
0.00585454
0.00849394
0.0102608
0.0113537
0.0119431
0.0121553
0.0120881
0.0118247
0.0114331
0.0109688
0.0104647
0.00999314
0.0093978
9.10675e-06
9.10469e-06
9.10349e-06
9.11132e-06
9.1052e-06
9.10466e-06
9.10445e-06
9.10434e-06
9.10446e-06
9.1042e-06
9.1043e-06
9.10432e-06
9.10244e-06
9.10157e-06
9.10366e-06
9.10181e-06
9.09764e-06
9.10462e-06
9.11096e-06
9.09764e-06
9.07592e-06
9.09425e-06
9.13815e-06
9.12914e-06
9.07877e-06
9.10512e-06
9.14703e-06
9.05188e-06
9.02279e-06
9.22007e-06
9.24229e-06
8.92453e-06
8.86178e-06
9.30376e-06
9.52154e-06
9.03051e-06
8.72725e-06
9.42079e-06
1.00573e-05
8.78475e-06
6.54175e-06
5.88229e-06
8.83286e-06
1.84159e-05
3.28138e-05
3.40962e-05
1.34394e-05
0.000950126
0.00493215
0.00783346
0.00980339
0.0110711
0.0117971
0.012116
0.0121312
0.011928
0.011579
0.0111419
0.0106638
0.0101709
0.00972992
0.00917808
9.0953e-06
9.10251e-06
9.09906e-06
9.11045e-06
9.10565e-06
9.10492e-06
9.10448e-06
9.10423e-06
9.1042e-06
9.10407e-06
9.10397e-06
9.1043e-06
9.10342e-06
9.10158e-06
9.10279e-06
9.10388e-06
9.09878e-06
9.10009e-06
9.11071e-06
9.11025e-06
9.08468e-06
9.07673e-06
9.11136e-06
9.13371e-06
9.09562e-06
9.08536e-06
9.14487e-06
9.1052e-06
8.99769e-06
9.11515e-06
9.29655e-06
9.08889e-06
8.78716e-06
9.0222e-06
9.5254e-06
9.37078e-06
8.74768e-06
8.92736e-06
1.0071e-05
1.01953e-05
7.97592e-06
5.49354e-06
5.17596e-06
9.58174e-06
2.46397e-05
4.43269e-05
3.58304e-05
0.000325535
0.0038214
0.00712807
0.00930214
0.01074
0.0116099
0.0120433
0.0121485
0.0120132
0.0117122
0.0113083
0.0108504
0.0103784
0.00991206
0.00951314
0.0090131
9.08918e-06
9.10138e-06
9.09787e-06
9.10712e-06
9.10629e-06
9.10544e-06
9.10472e-06
9.10429e-06
9.10411e-06
9.1041e-06
9.10371e-06
9.10402e-06
9.10386e-06
9.10231e-06
9.10241e-06
9.10493e-06
9.10151e-06
9.09826e-06
9.10654e-06
9.11494e-06
9.09899e-06
9.07694e-06
9.08991e-06
9.12191e-06
9.1082e-06
9.07565e-06
9.12164e-06
9.14852e-06
9.03184e-06
9.0203e-06
9.24671e-06
9.25469e-06
8.88263e-06
8.78465e-06
9.28685e-06
9.59012e-06
9.02968e-06
8.57914e-06
9.42949e-06
1.08045e-05
1.01174e-05
7.02154e-06
4.32233e-06
4.27867e-06
1.04021e-05
3.03693e-05
4.44543e-05
3.39156e-05
0.00247892
0.00633168
0.0087633
0.0103678
0.0113802
0.0119341
0.0121365
0.0120767
0.0118308
0.0114647
0.0110322
0.0105747
0.0101253
0.00969813
0.00934982
0.00890675
9.09336e-06
9.10289e-06
9.10098e-06
9.10361e-06
9.10675e-06
9.10591e-06
9.10511e-06
9.10451e-06
9.10418e-06
9.10419e-06
9.10372e-06
9.10357e-06
9.10396e-06
9.10308e-06
9.10243e-06
9.10457e-06
9.10403e-06
9.09929e-06
9.10185e-06
9.11181e-06
9.11025e-06
9.08899e-06
9.08246e-06
9.10616e-06
9.11417e-06
9.07928e-06
9.09261e-06
9.15971e-06
9.09732e-06
8.98385e-06
9.12949e-06
9.32871e-06
9.09303e-06
8.72621e-06
8.94829e-06
9.53534e-06
9.40618e-06
8.61059e-06
8.65858e-06
1.02408e-05
1.15765e-05
9.91608e-06
5.85184e-06
2.97541e-06
3.08335e-06
1.00544e-05
2.86882e-05
1.34923e-05
0.00116783
0.00536731
0.0081664
0.0099626
0.0111125
0.0117867
0.0120917
0.0121147
0.0119316
0.0116097
0.0112065
0.0107681
0.0103286
0.00991514
0.00953657
0.00924439
0.00886026
9.10513e-06
9.10664e-06
9.10652e-06
9.10207e-06
9.10657e-06
9.10595e-06
9.10543e-06
9.10477e-06
9.10433e-06
9.10422e-06
9.10386e-06
9.10338e-06
9.10364e-06
9.1036e-06
9.10263e-06
9.10342e-06
9.10496e-06
9.10165e-06
9.09922e-06
9.10511e-06
9.11422e-06
9.10345e-06
9.08733e-06
9.09564e-06
9.1146e-06
9.09302e-06
9.07377e-06
9.13794e-06
9.15297e-06
9.01558e-06
9.01613e-06
9.27567e-06
9.29531e-06
8.87365e-06
8.7097e-06
9.2353e-06
9.62906e-06
8.99814e-06
8.2748e-06
9.05793e-06
1.13141e-05
1.24369e-05
9.52968e-06
4.40488e-06
1.61954e-06
1.85775e-06
8.78474e-06
2.31028e-05
0.000344456
0.00415784
0.00746122
0.00951852
0.0108144
0.0116035
0.0120116
0.012123
0.0120105
0.0117403
0.011372
0.0109556
0.0105302
0.0101231
0.00975593
0.00943215
0.00919851
0.00887091
9.11617e-06
9.11076e-06
9.11092e-06
9.10316e-06
9.10558e-06
9.10539e-06
9.10544e-06
9.10496e-06
9.10443e-06
9.10415e-06
9.10397e-06
9.10346e-06
9.10332e-06
9.10362e-06
9.10277e-06
9.10229e-06
9.10445e-06
9.10354e-06
9.09909e-06
9.09967e-06
9.11172e-06
9.11282e-06
9.09731e-06
9.09285e-06
9.1114e-06
9.10894e-06
9.07309e-06
9.10103e-06
9.16983e-06
9.0867e-06
8.96647e-06
9.13864e-06
9.3747e-06
9.13506e-06
8.69856e-06
8.8771e-06
9.54274e-06
9.48463e-06
8.46953e-06
8.1176e-06
9.73482e-06
1.26568e-05
1.34532e-05
8.87585e-06
2.91516e-06
7.44102e-07
1.47827e-06
1.58545e-05
8.94009e-05
0.00277074
0.0065978
0.00900611
0.0104883
0.0113914
0.0118971
0.0120985
0.0120627
0.0118522
0.0115259
0.0111367
0.0107275
0.0103304
0.00996692
0.00965287
0.00938682
0.00920981
0.00893763
9.11875e-06
9.11346e-06
9.11141e-06
9.1058e-06
9.10414e-06
9.10442e-06
9.10507e-06
9.105e-06
9.10447e-06
9.10406e-06
9.104e-06
9.10367e-06
9.10324e-06
9.10332e-06
9.10281e-06
9.10144e-06
9.10319e-06
9.10422e-06
9.10065e-06
9.09769e-06
9.10611e-06
9.11464e-06
9.10546e-06
9.09532e-06
9.10633e-06
9.11898e-06
9.08754e-06
9.07223e-06
9.14613e-06
9.15139e-06
8.99668e-06
9.00447e-06
9.29846e-06
9.35549e-06
8.90539e-06
8.66762e-06
9.20362e-06
9.73696e-06
9.07816e-06
7.91606e-06
8.12264e-06
1.06548e-05
1.44738e-05
1.47245e-05
8.20049e-06
1.92563e-06
5.62487e-07
5.45712e-06
9.22872e-05
0.00159127
0.00560796
0.00838414
0.0101199
0.0111569
0.0117541
0.0120405
0.0120842
0.0119404
0.0116642
0.0113086
0.01092
0.0105345
0.0101779
0.00986558
0.00960824
0.00939845
0.00927716
0.00906236
9.11123e-06
9.11393e-06
9.10799e-06
9.10818e-06
9.10304e-06
9.10355e-06
9.10449e-06
9.10491e-06
9.10449e-06
9.10405e-06
9.10397e-06
9.10386e-06
9.10336e-06
9.10308e-06
9.1028e-06
9.10144e-06
9.10201e-06
9.1037e-06
9.10239e-06
9.09899e-06
9.10078e-06
9.11039e-06
9.1087e-06
9.09924e-06
9.10098e-06
9.11927e-06
9.10679e-06
9.06589e-06
9.10363e-06
9.17555e-06
9.07667e-06
8.94567e-06
9.13053e-06
9.41351e-06
9.19908e-06
8.70826e-06
8.82914e-06
9.58734e-06
9.68751e-06
8.45877e-06
7.39139e-06
8.24864e-06
1.20068e-05
1.70732e-05
1.65697e-05
7.96902e-06
1.61061e-06
1.45577e-06
5.35631e-05
0.000930635
0.00462791
0.00765004
0.00967849
0.0108961
0.0115909
0.0119533
0.0120729
0.012
0.0117816
0.0114675
0.0111054
0.0107351
0.0103864
0.0100787
0.00982179
0.00962021
0.00946588
0.00940218
0.00924326
9.09898e-06
9.11216e-06
9.1033e-06
9.10916e-06
9.10299e-06
9.10332e-06
9.10405e-06
9.10476e-06
9.10455e-06
9.10414e-06
9.10395e-06
9.10393e-06
9.10356e-06
9.10305e-06
9.10285e-06
9.10207e-06
9.1015e-06
9.10294e-06
9.10328e-06
9.10131e-06
9.09788e-06
9.10376e-06
9.10757e-06
9.10217e-06
9.09709e-06
9.11151e-06
9.12003e-06
9.08118e-06
9.07031e-06
9.15454e-06
9.15383e-06
8.98106e-06
8.97861e-06
9.2974e-06
9.40691e-06
8.95411e-06
8.63536e-06
9.15777e-06
9.89122e-06
9.3626e-06
7.73745e-06
6.90399e-06
8.56472e-06
1.40682e-05
2.06227e-05
1.89978e-05
7.61494e-06
1.13453e-06
5.15415e-06
0.000559567
0.00372814
0.00688043
0.00914555
0.0105891
0.0114108
0.0118459
0.0120313
0.0120275
0.0118724
0.0116081
0.01128
0.0109303
0.0105924
0.0102898
0.0100359
0.00983404
0.00968758
0.00959048
0.00958251
0.00947603
9.09009e-06
9.10824e-06
9.10065e-06
9.10886e-06
9.10407e-06
9.10391e-06
9.10403e-06
9.10462e-06
9.10464e-06
9.10429e-06
9.10393e-06
9.10386e-06
9.1037e-06
9.1032e-06
9.10299e-06
9.10283e-06
9.10178e-06
9.10224e-06