/*--------------------------------*- C++ -*----------------------------------*\
  =========                 |
  \\      /  F ield         | OpenFOAM: The Open Source CFD Toolbox
   \\    /   O peration     | Website:  https://openfoam.org
    \\  /    A nd           | Version:  dev
     \\/     M anipulation  |
\*---------------------------------------------------------------------------*/
FoamFile
{
    version     2.0;
    format      ascii;
    class       surfaceScalarField;
    location    "350";
    object      phi;
}
// * * * * * * * * * * * * * * * * * * * * * * * * * * * * * * * * * * * * * //

dimensions      [0 3 -1 0 0 0 0];

internalField   nonuniform List<scalar> 
58294
(
-0.473412
-1.42736e-05
-0.473401
-3.22651e-05
-0.429524
-2.49876e-05
-0.47339
-3.57942e-05
-0.42953
-2.67702e-05
-0.389824
-2.41871e-05
-0.473385
-3.03483e-05
-0.429548
-1.76643e-05
-0.389844
-7.21419e-06
-0.353795
-1.74295e-05
-0.473386
-2.00511e-05
-0.429571
-7.46386e-06
-0.389866
4.39776e-06
-0.353804
1.15513e-06
-0.321094
-1.06319e-05
-0.473392
-9.05119e-06
-0.429592
8.46798e-07
-0.389882
8.50767e-06
-0.353809
9.25448e-06
-0.321094
1.86854e-06
-0.291384
-9.31183e-06
-0.473399
-1.31347e-06
-0.429605
4.34256e-06
-0.389888
7.15461e-06
-0.353811
1.01326e-05
-0.32109
4.26088e-06
-0.291382
2.65356e-07
-0.264431
-1.2756e-05
-0.473404
1.80237e-06
-0.429609
2.84146e-06
-0.389886
2.55809e-06
-0.35381
6.12468e-06
-0.321083
3.54935e-06
-0.291379
2.43219e-07
-0.264424
-6.00371e-06
-0.23997
-1.74714e-05
-0.473405
9.32751e-07
-0.429606
-1.99072e-06
-0.389881
-2.41308e-06
-0.353807
2.40807e-07
-0.321078
5.60123e-07
-0.291374
-1.49115e-06
-0.264418
-6.08179e-06
-0.239963
-1.22434e-05
-0.217764
-2.3121e-05
-0.473402
-1.95371e-06
-0.429597
-7.20536e-06
-0.389877
-5.83344e-06
-0.353805
-4.4909e-06
-0.321075
-2.77012e-06
-0.291369
-3.97583e-06
-0.264413
-6.35772e-06
-0.239958
-1.16611e-05
-0.217758
-1.84021e-05
-0.197617
-2.87324e-05
-0.473398
-4.97764e-06
-0.429589
-1.06092e-05
-0.389877
-7.20055e-06
-0.353805
-6.43643e-06
-0.321075
-4.71984e-06
-0.291367
-5.361e-06
-0.264411
-6.50236e-06
-0.239954
-1.04088e-05
-0.217753
-1.65927e-05
-0.197611
-2.38415e-05
-0.179333
-3.38893e-05
-0.473395
-6.97201e-06
-0.429583
-1.10302e-05
-0.389881
-6.87267e-06
-0.353806
-5.68521e-06
-0.321077
-4.60486e-06
-0.291367
-4.58207e-06
-0.264411
-5.29152e-06
-0.239952
-8.52229e-06
-0.21775
-1.39576e-05
-0.197607
-2.12387e-05
-0.179328
-2.90799e-05
-0.162739
-3.88878e-05
-0.473393
-7.78522e-06
-0.429581
-8.99383e-06
-0.389886
-5.66706e-06
-0.35381
-3.25852e-06
-0.32108
-2.4522e-06
-0.29137
-1.62198e-06
-0.264413
-2.388e-06
-0.239952
-5.41709e-06
-0.217747
-1.06779e-05
-0.197603
-1.77154e-05
-0.179323
-2.57738e-05
-0.162734
-3.3813e-05
-0.147682
-4.32502e-05
-0.473394
-7.86822e-06
-0.429583
-5.72539e-06
-0.389891
-4.16158e-06
-0.353815
-4.72412e-07
-0.321084
9.14071e-07
-0.291375
2.65938e-06
-0.264417
1.87099e-06
-0.239953
-1.05379e-06
-0.217747
-6.27727e-06
-0.1976
-1.34207e-05
-0.179319
-2.16971e-05
-0.16273
-3.0381e-05
-0.147677
-3.84668e-05
-0.134018
-4.76721e-05
-0.473395
-7.82581e-06
-0.429588
-2.79652e-06
-0.389894
-2.73374e-06
-0.353821
1.78361e-06
-0.321089
4.53588e-06
-0.291381
7.16225e-06
-0.264421
6.73815e-06
-0.239956
4.12591e-06
-0.217747
-9.40308e-07
-0.197599
-8.15201e-06
-0.179316
-1.68587e-05
-0.162726
-2.6085e-05
-0.147673
-3.48205e-05
-0.134014
-4.26798e-05
-0.121616
-5.13593e-05
-0.473396
-7.99438e-06
-0.429595
-1.15853e-06
-0.389895
-1.46943e-06
-0.353827
3.14226e-06
-0.321095
7.4369e-06
-0.291388
1.08174e-05
-0.264425
1.12956e-05
-0.239958
9.47708e-06
-0.217748
4.99174e-06
-0.197598
-1.97416e-06
-0.179313
-1.08785e-05
-0.162722
-2.08004e-05
-0.147668
-3.05075e-05
-0.13401
-3.92298e-05
-0.121612
-4.68294e-05
-0.110363
-5.51953e-05
-0.473396
-8.34483e-06
-0.429602
-1.13887e-06
-0.389896
-4.8801e-07
-0.353832
3.69609e-06
-0.3211
9.0994e-06
-0.291393
1.30593e-05
-0.264429
1.48676e-05
-0.239962
1.43652e-05
-0.217749
1.09988e-05
-0.197597
4.75262e-06
-0.179311
-3.96526e-06
-0.162718
-1.43302e-05
-0.147664
-2.51494e-05
-0.134005
-3.50726e-05
-0.121608
-4.33498e-05
-0.11036
-5.05064e-05
-0.100152
-5.81305e-05
-0.473396
-8.60627e-06
-0.429608
-2.32279e-06
-0.389897
9.88995e-08
-0.353836
3.66794e-06
-0.321106
9.35099e-06
-0.291398
1.37465e-05
-0.264433
1.707e-05
-0.239965
1.82961e-05
-0.217752
1.65786e-05
-0.197598
1.15944e-05
-0.17931
3.58686e-06
-0.162715
-6.73056e-06
-0.14766
-1.82925e-05
-0.134001
-2.9642e-05
-0.121604
-3.94907e-05
-0.110356
-4.73579e-05
-0.100149
-5.4023e-05
-0.0908858
-6.12719e-05
-0.473394
-8.49371e-06
-0.429613
-4.0375e-06
-0.3899
1.15957e-07
-0.353839
3.24484e-06
-0.321111
8.45892e-06
-0.291402
1.31889e-05
-0.264437
1.79309e-05
-0.239969
2.10282e-05
-0.217755
2.13048e-05
-0.1976
1.80745e-05
-0.17931
1.1314e-05
-0.162713
1.59726e-06
-0.147657
-1.0165e-05
-0.133997
-2.26301e-05
-0.121599
-3.42927e-05
-0.110351
-4.39016e-05
-0.100145
-5.09329e-05
-0.0908828
-5.70472e-05
-0.0824775
-6.33991e-05
-0.473392
-7.90379e-06
-0.429615
-5.57346e-06
-0.389903
-4.96555e-07
-0.353841
2.48412e-06
-0.321114
6.82095e-06
-0.291405
1.18355e-05
-0.264442
1.76962e-05
-0.239974
2.25521e-05
-0.217758
2.49422e-05
-0.197602
2.37971e-05
-0.17931
1.87593e-05
-0.162712
1.01877e-05
-0.147654
-1.14839e-06
-0.133993
-1.40863e-05
-0.121595
-2.71759e-05
-0.110347
-3.88973e-05
-0.100141
-4.80327e-05
-0.0908795
-5.43532e-05
-0.0824748
-5.98966e-05
-0.0748405
-6.58435e-05
-0.47339
-6.95534e-06
-0.429617
-6.51681e-06
-0.389907
-1.65354e-06
-0.353843
1.40216e-06
-0.321117
4.90773e-06
-0.291408
1.01728e-05
-0.264447
1.67677e-05
-0.239979
2.30326e-05
-0.217763
2.7385e-05
-0.197606
2.84587e-05
-0.179312
2.55084e-05
-0.162712
1.85564e-05
-0.147652
8.21493e-06
-0.133989
-4.51974e-06
-0.12159
-1.83597e-05
-0.110342
-3.18851e-05
-0.100136
-4.35213e-05
-0.0908755
-5.20818e-05
-0.0824719
-5.73058e-05
-0.0748381
-6.23279e-05
-0.0679186
-6.72234e-05
-0.473389
-5.92668e-06
-0.429617
-6.74764e-06
-0.38991
-3.087e-06
-0.353845
5.44467e-08
-0.321118
3.05304e-06
-0.291412
8.51895e-06
-0.264452
1.54729e-05
-0.239985
2.27129e-05
-0.217769
2.87233e-05
-0.19761
3.19537e-05
-0.179315
3.12763e-05
-0.162713
2.63133e-05
-0.147651
1.74429e-05
-0.133987
5.50196e-06
-0.121587
-8.35311e-06
-0.110338
-2.28845e-05
-0.100132
-3.66577e-05
-0.090871
-4.80087e-05
-0.0824681
-5.58144e-05
-0.0748354
-6.01308e-05
-0.0679164
-6.46149e-05
-0.0616301
-6.90535e-05
-0.473387
-5.10135e-06
-0.429617
-6.41932e-06
-0.389912
-4.44718e-06
-0.353847
-1.39316e-06
-0.32112
1.48106e-06
-0.291416
7.05316e-06
-0.264458
1.407e-05
-0.239991
2.18419e-05
-0.217775
2.91001e-05
-0.197616
3.42501e-05
-0.179319
3.58798e-05
-0.162715
3.31632e-05
-0.147651
2.61403e-05
-0.133985
1.54605e-05
-0.121583
2.19076e-06
-0.110333
-1.25461e-05
-0.100127
-2.75945e-05
-0.0908662
-4.14799e-05
-0.0824637
-5.24337e-05
-0.0748319
-5.94349e-05
-0.067914
-6.25037e-05
-0.0616281
-6.65873e-05
-0.0559289
-6.98514e-05
-0.473387
-4.65132e-06
-0.429616
-5.7915e-06
-0.389913
-5.41937e-06
-0.353848
-2.70484e-06
-0.321121
2.72174e-07
-0.29142
5.79363e-06
-0.264463
1.26551e-05
-0.239998
2.06076e-05
-0.217782
2.87238e-05
-0.197622
3.54928e-05
-0.179324
3.93041e-05
-0.162718
3.89489e-05
-0.147652
3.40515e-05
-0.133984
2.50006e-05
-0.121581
1.2744e-05
-0.11033
-1.58768e-06
-0.100123
-1.70036e-05
-0.0908614
-3.24087e-05
-0.0824589
-4.62447e-05
-0.0748276
-5.66498e-05
-0.0679107
-6.27429e-05
-0.0616259
-6.48006e-05
-0.0559271
-6.84735e-05
-0.0507549
-7.11733e-05
-0.473386
-4.57418e-06
-0.429616
-5.11934e-06
-0.389913
-5.83109e-06
-0.35385
-3.64357e-06
-0.321124
-5.59006e-07
-0.291425
4.71179e-06
-0.264469
1.12668e-05
-0.240004
1.91467e-05
-0.217789
2.77664e-05
-0.197629
3.57978e-05
-0.17933
4.15795e-05
-0.162722
4.35797e-05
-0.147654
4.10003e-05
-0.133983
3.38727e-05
-0.121579
2.29592e-05
-0.110326
9.41583e-06
-0.100118
-5.71086e-06
-0.0908568
-2.16134e-05
-0.0824541
-3.72429e-05
-0.0748229
-5.0939e-05
-0.0679066
-6.07594e-05
-0.0616228
-6.59342e-05
-0.0559252
-6.66809e-05
-0.0507532
-7.01139e-05
-0.0460565
-7.14605e-05
-0.473385
-4.73219e-06
-0.429616
-4.57021e-06
-0.389913
-5.69536e-06
-0.353852
-4.07913e-06
-0.321126
-1.05479e-06
-0.291429
3.75282e-06
-0.264474
9.88249e-06
-0.240011
1.753e-05
-0.217797
2.63893e-05
-0.197637
3.53634e-05
-0.179337
4.28334e-05
-0.162728
4.70859e-05
-0.147657
4.69045e-05
-0.133984
4.19395e-05
-0.121577
3.26594e-05
-0.110324
2.0166e-05
-0.100115
5.64953e-06
-0.0908525
-1.00406e-05
-0.0824494
-2.62884e-05
-0.0748181
-4.20241e-05
-0.067902
-5.54941e-05
-0.0616189
-6.46172e-05
-0.0559223
-6.88197e-05
-0.0507516
-6.85161e-05
-0.0460549
-7.16745e-05
-0.0417948
-7.23131e-05
-0.473383
-4.91883e-06
-0.429616
-4.21203e-06
-0.389912
-5.17358e-06
-0.353853
-4.0211e-06
-0.321129
-1.27761e-06
-0.291433
2.89948e-06
-0.264479
8.51475e-06
-0.240016
1.58226e-05
-0.217804
2.47012e-05
-0.197645
3.43047e-05
-0.179345
4.31619e-05
-0.162734
4.94776e-05
-0.147662
5.17149e-05
-0.133987
4.90869e-05
-0.121577
4.17147e-05
-0.110321
3.05137e-05
-0.100111
1.67771e-05
-0.0908484
1.58415e-06
-0.082445
-1.44665e-05
-0.0748135
-3.0913e-05
-0.0678973
-4.67007e-05
-0.0616145
-5.98913e-05
-0.0559186
-6.83147e-05
-0.0507488
-7.15837e-05
-0.0460535
-6.99566e-05
-0.0417933
-7.30334e-05
-0.0379274
-7.21999e-05
-0.473382
-4.96581e-06
-0.429617
-4.03171e-06
-0.389911
-4.50837e-06
-0.353855
-3.62465e-06
-0.321132
-1.31738e-06
-0.291436
2.14549e-06
-0.264483
7.18075e-06
-0.240022
1.40733e-05
-0.217811
2.28056e-05
-0.197653
3.27759e-05
-0.179353
4.27044e-05
-0.162742
5.08418e-05
-0.147668
5.5414e-05
-0.13399
5.52458e-05
-0.121578
5.00334e-05
-0.11032
4.04087e-05
-0.100108
2.7614e-05
-0.0908446
1.29764e-05
-0.0824408
-2.63532e-06
-0.0748091
-1.88707e-05
-0.0678928
-3.54485e-05
-0.06161
-5.1218e-05
-0.0559144
-6.40679e-05
-0.0507454
-7.17438e-05
-0.0460509
-7.40662e-05
-0.0417921
-7.1389e-05
-0.0379261
-7.43446e-05
-0.0344171
-7.26712e-05
-0.473381
-4.79001e-06
-0.429618
-3.97774e-06
-0.389911
-3.91611e-06
-0.353856
-3.11184e-06
-0.321134
-1.27634e-06
-0.291439
1.49874e-06
-0.264487
5.9379e-06
-0.240027
1.23502e-05
-0.217818
2.07868e-05
-0.197661
3.08639e-05
-0.179362
4.15521e-05
-0.162751
5.12235e-05
-0.147675
5.7997e-05
-0.133995
6.03358e-05
-0.12158
5.7509e-05
-0.11032
4.97521e-05
-0.100106
3.81442e-05
-0.0908411
2.41146e-05
-0.0824367
8.8903e-06
-0.0748049
-6.89463e-06
-0.0678885
-2.31704e-05
-0.0616056
-3.98033e-05
-0.0559101
-5.55326e-05
-0.0507414
-6.80447e-05
-0.0460477
-7.50168e-05
-0.0417897
-7.64434e-05
-0.037925
-7.24805e-05
-0.0344159
-7.55011e-05
-0.0312317
-7.22349e-05
-0.47338
-4.41693e-06
-0.429619
-3.98975e-06
-0.389912
-3.54291e-06
-0.353857
-2.69998e-06
-0.321136
-1.26124e-06
-0.291441
9.46045e-07
-0.26449
4.8192e-06
-0.240032
1.0712e-05
-0.217824
1.87306e-05
-0.197669
2.87018e-05
-0.179371
3.98394e-05
-0.16276
5.07282e-05
-0.147683
5.94767e-05
-0.134001
6.42911e-05
-0.121584
6.40116e-05
-0.110321
5.84382e-05
-0.100105
4.83335e-05
-0.090838
3.50977e-05
-0.0824327
2.01832e-05
-0.0748006
4.67174e-06
-0.0678843
-1.10692e-05
-0.0616015
-2.73055e-05
-0.0559059
-4.39792e-05
-0.0507373
-5.96406e-05
-0.0460439
-7.18009e-05
-0.0417867
-7.80381e-05
-0.0379228
-7.85796e-05
-0.0344149
-7.35978e-05
-0.0312306
-7.66176e-05
-0.0283416
-7.23827e-05
-0.473379
-3.94556e-06
-0.42962
-4.0127e-06
-0.389912
-3.41683e-06
-0.353858
-2.52352e-06
-0.321137
-1.35367e-06
-0.291443
4.64352e-07
-0.264493
3.85164e-06
-0.240036
9.20777e-06
-0.21783
1.67156e-05
-0.197676
2.63726e-05
-0.17938
3.76741e-05
-0.162769
4.94387e-05
-0.147692
5.98951e-05
-0.134009
6.7075e-05
-0.121589
6.94375e-05
-0.110323
6.63042e-05
-0.100104
5.80602e-05
-0.0908356
4.5911e-05
-0.0824291
3.14091e-05
-0.0747964
1.59476e-05
-0.0678801
4.42538e-07
-0.0615975
-1.51095e-05
-0.055902
-3.12411e-05
-0.0507333
-4.79135e-05
-0.04604
-6.35308e-05
-0.0417831
-7.53496e-05
-0.03792
-8.09062e-05
-0.0344129
-8.06249e-05
-0.0312298
-7.44073e-05
-0.0283405
-7.75883e-05
-0.0257186
-7.17299e-05
-0.473378
-3.49564e-06
-0.429619
-4.00449e-06
-0.389913
-3.48273e-06
-0.353859
-2.61082e-06
-0.321138
-1.59181e-06
-0.291444
1.40777e-08
-0.264496
3.0191e-06
-0.24004
7.85375e-06
-0.217836
1.4795e-05
-0.197684
2.40009e-05
-0.179389
3.51979e-05
-0.162779
4.75075e-05
-0.147702
5.933e-05
-0.134018
6.8665e-05
-0.121596
7.36625e-05
-0.110327
7.31898e-05
-0.100105
6.71496e-05
-0.090834
5.6473e-05
-0.0824258
4.26551e-05
-0.0747922
2.72512e-05
-0.0678757
1.15772e-05
-0.0615933
-3.70975e-06
-0.0558981
-1.89571e-05
-0.0507297
-3.49464e-05
-0.0460363
-5.16477e-05
-0.0417795
-6.72028e-05
-0.0379166
-7.86689e-05
-0.0344103
-8.35376e-05
-0.0312279
-8.24597e-05
-0.0283398
-7.52532e-05
-0.0257177
-7.85261e-05
-0.0233388
-7.16235e-05
-0.473376
-3.15767e-06
-0.429619
-3.92711e-06
-0.389913
-3.62229e-06
-0.35386
-2.88614e-06
-0.321139
-1.95447e-06
-0.291446
-4.28717e-07
-0.264498
2.29304e-06
-0.240044
6.64779e-06
-0.217841
1.30018e-05
-0.197691
2.16443e-05
-0.179397
3.25356e-05
-0.162789
4.5057e-05
-0.147712
5.78992e-05
-0.134027
6.91083e-05
-0.121604
7.66448e-05
-0.110332
7.89441e-05
-0.100107
7.54215e-05
-0.0908335
6.66003e-05
-0.0824232
5.3836e-05
-0.0747883
3.8716e-05
-0.0678713
2.27658e-05
-0.0615889
7.15698e-06
-0.0558941
-7.72843e-06
-0.050726
-2.25801e-05
-0.0460329
-3.84053e-05
-0.041776
-5.51193e-05
-0.0379132
-7.06341e-05
-0.0344072
-8.17712e-05
-0.0312254
-8.60291e-05
-0.0283381
-8.42108e-05
-0.0257171
-7.58303e-05
-0.023338
-7.93315e-05
-0.0211782
-7.08056e-05
-0.473375
-2.96195e-06
-0.429619
-3.76001e-06
-0.389913
-3.71892e-06
-0.35386
-3.21804e-06
-0.321139
-2.37205e-06
-0.291447
-8.71198e-07
-0.2645
1.63348e-06
-0.240047
5.55687e-06
-0.217845
1.1344e-05
-0.197697
1.9376e-05
-0.179406
2.97994e-05
-0.162799
4.22714e-05
-0.147723
5.57475e-05
-0.134038
6.84857e-05
-0.121613
7.83417e-05
-0.110339
8.34386e-05
-0.100111
8.26746e-05
-0.0908342
7.60956e-05
-0.0824213
6.47824e-05
-0.0747848
5.03169e-05
-0.0678668
3.42809e-05
-0.0615842
1.81104e-05
-0.0558897
2.79192e-06
-0.0507222
-1.15492e-05
-0.0460295
-2.59346e-05
-0.0417728
-4.16117e-05
-0.03791
-5.83763e-05
-0.034404
-7.38359e-05
-0.0312225
-8.46586e-05
-0.0283358
-8.83118e-05
-0.0257155
-8.57811e-05
-0.0233375
-7.64518e-05
-0.0211774
-8.01082e-05
-0.0192184
-7.05026e-05
-0.473374
-2.86905e-06
-0.429618
-3.49331e-06
-0.389913
-3.68661e-06
-0.35386
-3.46657e-06
-0.32114
-2.74644e-06
-0.291448
-1.28894e-06
-0.264502
1.02066e-06
-0.24005
4.55666e-06
-0.21785
9.80652e-06
-0.197703
1.72162e-05
-0.179413
2.70699e-05
-0.162808
3.92591e-05
-0.147734
5.30507e-05
-0.134049
6.6926e-05
-0.121623
7.88283e-05
-0.110347
8.66136e-05
-0.100116
8.87544e-05
-0.0908362
8.47501e-05
-0.0824206
7.53041e-05
-0.0747819
6.18741e-05
-0.0678626
4.6098e-05
-0.0615795
2.95037e-05
-0.055885
1.33772e-05
-0.050718
-1.45791e-06
-0.0460259
-1.51209e-05
-0.0417697
-2.90244e-05
-0.037907
-4.45614e-05
-0.034401
-6.13608e-05
-0.0312196
-7.6802e-05
-0.0283331
-8.73467e-05
-0.0257133
-9.04672e-05
-0.023336
-8.72766e-05
-0.021177
-7.68408e-05
-0.0192177
-8.07584e-05
-0.0174394
-6.96184e-05
-0.473373
-2.80586e-06
-0.429618
-3.14289e-06
-0.389913
-3.50183e-06
-0.35386
-3.54052e-06
-0.32114
-2.98801e-06
-0.291449
-1.64418e-06
-0.264504
4.50144e-07
-0.240053
3.62475e-06
-0.217854
8.3766e-06
-0.197708
1.51795e-05
-0.17942
2.4415e-05
-0.162817
3.61572e-05
-0.147745
4.99557e-05
-0.134061
6.46021e-05
-0.121635
7.81637e-05
-0.110357
8.84494e-05
-0.100123
9.35194e-05
-0.0908399
9.23674e-05
-0.082421
8.51808e-05
-0.0747798
7.31963e-05
-0.0678588
5.80514e-05
-0.0615747
4.13824e-05
-0.0558801
2.45491e-05
-0.0507133
8.6848e-06
-0.0460219
-5.50526e-06
-0.0417664
-1.84317e-05
-0.0379042
-3.18394e-05
-0.0343983
-4.72642e-05
-0.0312168
-6.4143e-05
-0.0283304
-7.95608e-05
-0.0257108
-8.98425e-05
-0.023334
-9.24413e-05
-0.0211756
-8.86223e-05
-0.0192173
-7.72712e-05
-0.0174388
-8.13913e-05
-0.0158255
-6.91929e-05
-0.473372
-2.69237e-06
-0.429618
-2.74692e-06
-0.389913
-3.19921e-06
-0.35386
-3.41339e-06
-0.321141
-3.04556e-06
-0.29145
-1.8952e-06
-0.264505
-5.6888e-08
-0.240055
2.76446e-06
-0.217857
7.04553e-06
-0.197713
1.32625e-05
-0.179427
2.18536e-05
-0.162826
3.30408e-05
-0.147755
4.66062e-05
-0.134072
6.16625e-05
-0.121646
7.65323e-05
-0.110368
8.89971e-05
-0.100132
9.69258e-05
-0.0908451
9.87785e-05
-0.0824228
9.42143e-05
-0.0747787
8.40836e-05
-0.0678555
6.9956e-05
-0.0615702
5.35485e-05
-0.055875
3.6349e-05
-0.0507082
1.95167e-05
-0.0460173
4.09536e-06
-0.0417626
-9.33651e-06
-0.0379012
-2.14698e-05
-0.0343957
-3.44004e-05
-0.0312143
-4.97251e-05
-0.0283278
-6.66745e-05
-0.0257083
-8.21017e-05
-0.0233317
-9.2156e-05
-0.0211738
-9.43072e-05
-0.0192161
-8.98959e-05
-0.0174385
-7.751e-05
-0.0158249
-8.19096e-05
-0.0143608
-6.82968e-05
-0.473371
-2.48415e-06
-0.429618
-2.35911e-06
-0.389913
-2.85746e-06
-0.353861
-3.13552e-06
-0.321141
-2.92122e-06
-0.291451
-2.02287e-06
-0.264507
-4.76742e-07
-0.240057
1.9902e-06
-0.21786
5.8191e-06
-0.197717
1.14741e-05
-0.179433
1.94164e-05
-0.162834
2.9972e-05
-0.147765
4.31271e-05
-0.134084
5.82733e-05
-0.121659
7.40422e-05
-0.110379
8.8367e-05
-0.100142
9.89272e-05
-0.0908521
0.000103858
-0.0824263
0.000102198
-0.0747788
9.43377e-05
-0.0678531
8.16196e-05
-0.0615661
6.58108e-05
-0.05587
4.85683e-05
-0.050703
3.11503e-05
-0.0460123
1.45246e-05
-0.0417581
-3.1886e-07
-0.0378976
-1.29167e-05
-0.0343929
-2.42543e-05
-0.031212
-3.67066e-05
-0.0283256
-5.19675e-05
-0.025706
-6.90271e-05
-0.0233293
-8.44541e-05
-0.0211717
-9.43042e-05
-0.0192144
-9.60195e-05
-0.0174374
-9.10426e-05
-0.0158247
-7.77805e-05
-0.0143603
-8.2421e-05
-0.0130316
-6.77904e-05
-0.473371
-2.19053e-06
-0.429619
-2.03566e-06
-0.389912
-2.55738e-06
-0.353861
-2.7982e-06
-0.321142
-2.67047e-06
-0.291452
-2.03233e-06
-0.264508
-7.88167e-07
-0.240059
1.32704e-06
-0.217863
4.71534e-06
-0.197722
9.81985e-06
-0.179439
1.7113e-05
-0.162842
2.6989e-05
-0.147775
3.95914e-05
-0.134096
5.4583e-05
-0.121671
7.0889e-05
-0.110392
8.66723e-05
-0.100153
9.96217e-05
-0.0908607
0.000107525
-0.0824314
0.000108978
-0.0747804
0.000103752
-0.0678516
9.28718e-05
-0.0615625
7.80095e-05
-0.0558652
6.09989e-05
-0.0506978
4.33046e-05
-0.046007
2.58993e-05
-0.0417532
9.62753e-06
-0.0378934
-4.54249e-06
-0.0343896
-1.62604e-05
-0.0312095
-2.67736e-05
-0.0283235
-3.87844e-05
-0.0257039
-5.39948e-05
-0.0233272
-7.11484e-05
-0.0211695
-8.66072e-05
-0.0192124
-9.6294e-05
-0.0174358
-9.76318e-05
-0.0158237
-9.21172e-05
-0.0143602
-7.79005e-05
-0.0130311
-8.28212e-05
-0.0118255
-6.69152e-05
-0.473371
-1.85647e-06
-0.429619
-1.82058e-06
-0.389912
-2.36197e-06
-0.353861
-2.50028e-06
-0.321142
-2.37808e-06
-0.291453
-1.96058e-06
-0.264509
-9.90636e-07
-0.240061
7.91182e-07
-0.217865
3.75308e-06
-0.197725
8.32337e-06
-0.179444
1.49672e-05
-0.162849
2.41335e-05
-0.147784
3.60831e-05
-0.134107
5.06968e-05
-0.121684
6.72168e-05
-0.110405
8.40643e-05
-0.100165
9.904e-05
-0.0908708
0.000109784
-0.0824383
0.000114394
-0.0747835
0.000112136
-0.0678514
0.000103507
-0.0615596
9.0004e-05
-0.0558607
7.34975e-05
-0.0506925
5.5735e-05
-0.0460016
3.78925e-05
-0.0417481
2.07052e-05
-0.0378886
4.90159e-06
-0.0343856
-8.53859e-06
-0.0312064
-1.93419e-05
-0.0283212
-2.90596e-05
-0.0257021
-4.06415e-05
-0.0233254
-5.58313e-05
-0.0211676
-7.31094e-05
-0.0192104
-8.86006e-05
-0.0174339
-9.81434e-05
-0.0158222
-9.91119e-05
-0.0143592
-9.30896e-05
-0.013031
-7.80414e-05
-0.0118251
-8.32237e-05
-0.0107313
-6.63952e-05
-0.47337
-1.54985e-06
-0.42962
-1.71848e-06
-0.389911
-2.28153e-06
-0.353861
-2.31135e-06
-0.321143
-2.12634e-06
-0.291453
-1.85626e-06
-0.26451
-1.10171e-06
-0.240062
3.86709e-07
-0.217867
2.94771e-06
-0.197728
6.99577e-06
-0.179449
1.29989e-05
-0.162855
2.14312e-05
-0.147792
3.26552e-05
-0.134117
4.67282e-05
-0.121697
6.31704e-05
-0.110419
8.07182e-05
-0.100179
9.73371e-05
-0.0908824
0.000110637
-0.0824469
0.000118408
-0.0747884
0.000119294
-0.0678526
0.000113335
-0.0615577
0.000101622
-0.0558567
8.59794e-05
-0.0506873
6.8325e-05
-0.0459961
5.02003e-05
-0.0417426
3.24797e-05
-0.0378836
1.56389e-05
-0.0343811
3.62363e-07
-0.0312027
-1.23039e-05
-0.0283184
-2.2184e-05
-0.0257
-3.11059e-05
-0.0233237
-4.23025e-05
-0.0211659
-5.7473e-05
-0.0192086
-7.48655e-05
-0.0174321
-9.04192e-05
-0.0158205
-9.98547e-05
-0.0143578
-0.000100503
-0.0130301
-9.39937e-05
-0.011825
-7.80778e-05
-0.0107309
-8.35157e-05
-0.00973831
-6.55553e-05
-0.47337
-1.32261e-06
-0.429619
-1.7115e-06
-0.389911
-2.28077e-06
-0.353861
-2.2464e-06
-0.321143
-1.97286e-06
-0.291454
-1.7666e-06
-0.26451
-1.15514e-06
-0.240063
9.5277e-08
-0.217869
2.29796e-06
-0.197731
5.85394e-06
-0.179453
1.12266e-05
-0.162861
1.89225e-05
-0.1478
2.93645e-05
-0.134127
4.27643e-05
-0.121709
5.88795e-05
-0.110432
7.67619e-05
-0.100193
9.46429e-05
-0.0908953
0.000110164
-0.0824572
0.000120933
-0.0747951
0.000125128
-0.0678554
0.000122126
-0.0615571
0.000112666
-0.0558534
9.83054e-05
-0.0506824
8.10474e-05
-0.0459905
6.27099e-05
-0.041737
4.45636e-05
-0.0378782
2.71563e-05
-0.0343762
1.07669e-05
-0.0311984
-3.93859e-06
-0.0283149
-1.58184e-05
-0.0256974
-2.47771e-05
-0.0233219
-3.2957e-05
-0.0211644
-4.37737e-05
-0.0192072
-5.89525e-05
-0.0174305
-7.64869e-05
-0.0158188
-9.21059e-05
-0.0143562
-0.000101449
-0.0130288
-0.000101787
-0.0118242
-9.48167e-05
-0.0107309
-7.81108e-05
-0.00973799
-8.38215e-05
-0.0088361
-6.4037e-05
-0.473369
-1.19703e-06
-0.429619
-1.75226e-06
-0.38991
-2.30252e-06
-0.353861
-2.26483e-06
-0.321143
-1.92789e-06
-0.291454
-1.72119e-06
-0.264511
-1.18454e-06
-0.240064
-1.11972e-07
-0.217871
1.78534e-06
-0.197734
4.89144e-06
-0.179457
9.66334e-06
-0.162866
1.6622e-05
-0.147808
2.62584e-05
-0.134137
3.88833e-05
-0.12172
5.44749e-05
-0.110446
7.23717e-05
-0.100207
9.11054e-05
-0.0909091
0.000108489
-0.082469
0.000122003
-0.0748037
0.000129479
-0.06786
0.000129734
-0.0615578
0.000122902
-0.055851
0.00011031
-0.0506779
9.38255e-05
-0.0459849
7.54653e-05
-0.0417311
5.68481e-05
-0.0378726
3.89554e-05
-0.034371
2.20222e-05
-0.0311937
6.11804e-06
-0.0283108
-8.00888e-06
-0.0256942
-1.90937e-05
-0.0233195
-2.71567e-05
-0.0211628
-3.46013e-05
-0.0192058
-4.50777e-05
-0.0174292
-6.02648e-05
-0.0158174
-7.79339e-05
-0.0143547
-9.36435e-05
-0.0130274
-0.00010293
-0.011823
-0.000102986
-0.0107302
-9.55654e-05
-0.009738
-7.80829e-05
-0.00883663
-8.32058e-05
-0.00801141
-5.75419e-05
-0.473369
-1.15728e-06
-0.429618
-1.78188e-06
-0.38991
-2.28571e-06
-0.353861
-2.30587e-06
-0.321143
-1.95721e-06
-0.291454
-1.72357e-06
-0.264512
-1.21804e-06
-0.240065
-2.70613e-07
-0.217872
1.37942e-06
-0.197736
4.0916e-06
-0.17946
8.30894e-06
-0.162871
1.45574e-05
-0.147814
2.33678e-05
-0.134146
3.51588e-05
-0.121732
5.0054e-05
-0.110459
6.76857e-05
-0.100221
8.68886e-05
-0.0909237
0.000105711
-0.0824822
0.00012168
-0.074814
0.000132323
-0.0678665
0.000135959
-0.0615603
0.000132158
-0.0558499
0.000121748
-0.0506741
0.000106509
-0.0459795
8.84459e-05
-0.0417251
6.94511e-05
-0.0378667
5.0907e-05
-0.0343656
3.34918e-05
-0.0311888
1.71087e-05
-0.0283064
1.72723e-06
-0.0256903
-1.18159e-05
-0.0233165
-2.21306e-05
-0.0211606
-2.93191e-05
-0.0192044
-3.60844e-05
-0.017428
-4.62239e-05
-0.0158162
-6.14456e-05
-0.0143534
-7.92706e-05
-0.013026
-9.50777e-05
-0.0118216
-0.000104312
-0.0107291
-0.000104091
-0.00973735
-9.62481e-05
-0.00883656
-7.81518e-05
-0.00801737
-7.7243e-05
-0.00724707
-4.7435e-05
-0.473368
-1.16633e-06
-0.429618
-1.76014e-06
-0.389909
-2.1917e-06
-0.353861
-2.30067e-06
-0.321144
-2.00912e-06
-0.291454
-1.75062e-06
-0.264512
-1.26567e-06
-0.240066
-4.08546e-07
-0.217874
1.04496e-06
-0.197738
3.42354e-06
-0.179463
7.14432e-06
-0.162876
1.27265e-05
-0.147821
2.07252e-05
-0.134154
3.16313e-05
-0.121742
4.57277e-05
-0.110472
6.28482e-05
-0.100236
8.21697e-05
-0.0909388
0.000102013
-0.0824965
0.000120035
-0.074826
0.000133647
-0.0678749
0.000140692
-0.0615645
0.00014018
-0.0558502
0.000132438
-0.0506712
0.000118879
-0.0459746
0.000101553
-0.0417191
8.2433e-05
-0.0378605
6.32124e-05
-0.0343597
4.50215e-05
-0.0311835
2.82335e-05
-0.0283018
1.24747e-05
-0.0256862
-2.40176e-06
-0.0233129
-1.53883e-05
-0.0211578
-2.49482e-05
-0.0192024
-3.12968e-05
-0.0174267
-3.73907e-05
-0.0158152
-4.72312e-05
-0.0143523
-6.24843e-05
-0.0130248
-8.04633e-05
-0.0118203
-9.63869e-05
-0.0107278
-0.000105594
-0.00973634
-0.000105109
-0.008836
-9.68315e-05
-0.00801879
-7.67343e-05
-0.0072601
-6.41507e-05
-0.00654536
-3.62425e-05
-0.473368
-1.18048e-06
-0.429617
-1.66675e-06
-0.389909
-2.02046e-06
-0.353861
-2.20952e-06
-0.321144
-2.02372e-06
-0.291455
-1.7748e-06
-0.264512
-1.3203e-06
-0.240067
-5.42081e-07
-0.217875
7.53024e-07
-0.19774
2.85384e-06
-0.179466
6.14513e-06
-0.16288
1.11196e-05
-0.147826
1.83413e-05
-0.134162
2.83532e-05
-0.121752
4.15481e-05
-0.110484
5.79882e-05
-0.10025
7.71003e-05
-0.0909542
9.75576e-05
-0.0825118
0.000117214
-0.0748394
0.000133474
-0.0678851
0.000143877
-0.0615706
0.000146826
-0.0558521
0.000142111
-0.0506696
0.00013075
-0.0459703
0.000114573
-0.0417133
9.57167e-05
-0.037854
7.60076e-05
-0.0343534
5.6905e-05
-0.0311778
3.92895e-05
-0.0282968
2.3246e-05
-0.0256819
8.11724e-06
-0.023309
-6.25426e-06
-0.0211545
-1.87074e-05
-0.0191998
-2.75517e-05
-0.0174249
-3.30862e-05
-0.015814
-3.85655e-05
-0.0143515
-4.81079e-05
-0.0130238
-6.34205e-05
-0.0118192
-8.157e-05
-0.0107266
-9.76127e-05
-0.00973517
-0.000106786
-0.00883506
-0.000106067
-0.00801893
-9.67256e-05
-0.00726774
-6.90719e-05
-0.00656075
-4.87837e-05
-0.00590588
-2.57613e-05
-0.473367
-1.16119e-06
-0.429617
-1.50199e-06
-0.389909
-1.79172e-06
-0.353861
-2.03277e-06
-0.321144
-1.96461e-06
-0.291455
-1.76281e-06
-0.264513
-1.36802e-06
-0.240067
-6.70177e-07
-0.217876
4.86898e-07
-0.197742
2.35376e-06
-0.179468
5.27526e-06
-0.162883
9.71217e-06
-0.147831
1.6208e-05
-0.134169
2.53434e-05
-0.121761
3.75977e-05
-0.110496
5.31936e-05
-0.100264
7.18565e-05
-0.0909696
9.25293e-05
-0.0825276
0.000113383
-0.0748541
0.000131902
-0.0678971
0.000145447
-0.0615787
0.000151959
-0.0558558
0.000150571
-0.0506693
0.000141837
-0.0459668
0.000127336
-0.0417078
0.000109126
-0.0378476
8.92727e-05
-0.0343468
6.93802e-05
-0.0311716
5.06672e-05
-0.0282913
3.37832e-05
-0.0256772
1.85473e-05
-0.023305
4.07484e-06
-0.0211509
-9.84643e-06
-0.0191967
-2.18085e-05
-0.0174225
-2.99562e-05
-0.0158124
-3.47155e-05
-0.0143504
-3.959e-05
-0.0130231
-4.88729e-05
-0.0118184
-6.42434e-05
-0.0107256
-8.25609e-05
-0.00973406
-9.87296e-05
-0.00883397
-0.000107893
-0.00801812
-0.000106884
-0.00727278
-9.17046e-05
-0.00657208
-5.77365e-05
-0.0059211
-3.35194e-05
-0.00532637
-1.63127e-05
-0.473366
-1.10672e-06
-0.429617
-1.30767e-06
-0.389909
-1.5427e-06
-0.353861
-1.79538e-06
-0.321145
-1.82981e-06
-0.291455
-1.70113e-06
-0.264513
-1.38934e-06
-0.240068
-7.84979e-07
-0.217877
2.42503e-07
-0.197743
1.90752e-06
-0.179471
4.50991e-06
-0.162886
8.47197e-06
-0.147836
1.43115e-05
-0.134175
2.26062e-05
-0.12177
3.39067e-05
-0.110507
4.85675e-05
-0.100277
6.65381e-05
-0.0909849
8.71145e-05
-0.0825438
0.000108714
-0.0748698
0.00012907
-0.0679106
0.000145462
-0.0615887
0.000155466
-0.0558615
0.00015765
-0.0506707
0.000151939
-0.0459646
0.00013957
-0.041703
0.000122501
-0.0378413
0.000102832
-0.0343399
8.24486e-05
-0.0311649
6.27035e-05
-0.0282852
4.45861e-05
-0.0256719
2.8553e-05
-0.0233006
1.41779e-05
-0.0211471
3.1892e-07
-0.0191934
-1.31745e-05
-0.0174197
-2.46745e-05
-0.0158102
-3.21687e-05
-0.014349
-3.61812e-05
-0.0130222
-4.05077e-05
-0.0118178
-4.95351e-05
-0.0107249
-6.4993e-05
-0.00973315
-8.34825e-05
-0.00883294
-9.97824e-05
-0.00801709
-0.000108942
-0.00727465
-0.000105032
-0.00658258
-8.12331e-05
-0.00593318
-4.56268e-05
-0.00534011
-1.97973e-05
-0.00480298
-8.45435e-06
-0.473366
-1.02745e-06
-0.429617
-1.12094e-06
-0.389909
-1.3218e-06
-0.353861
-1.53926e-06
-0.321145
-1.63861e-06
-0.291455
-1.59433e-06
-0.264514
-1.37409e-06
-0.240069
-8.71466e-07
-0.217878
2.64552e-08
-0.197744
1.50546e-06
-0.179472
3.83078e-06
-0.162889
7.37296e-06
-0.14784
1.26176e-05
-0.134181
2.01357e-05
-0.121778
3.04983e-05
-0.110517
4.41716e-05
-0.10029
6.12955e-05
-0.0909998
8.14487e-05
-0.0825601
0.000103424
-0.0748862
0.000125135
-0.0679256
0.000143997
-0.0616006
0.000157319
-0.0558692
0.000163158
-0.0506739
0.000160839
-0.0459637
0.000151058
-0.041699
0.000135581
-0.0378353
0.000116549
-0.0343331
9.59643e-05
-0.0311579
7.54574e-05
-0.0282786
5.6117e-05
-0.0256661
3.87435e-05
-0.0232957
2.36356e-05
-0.0211431
1.01257e-05
-0.0191899
-3.12891e-06
-0.0174166
-1.62625e-05
-0.0158075
-2.73424e-05
-0.0143469
-3.42011e-05
-0.0130208
-3.75093e-05
-0.0118169
-4.1303e-05
-0.0107243
-5.01152e-05
-0.0097325
-6.565e-05
-0.00883211
-8.4308e-05
-0.00801612
-0.000100763
-0.00727463
-0.00010898
-0.00659079
-9.68247e-05
-0.00594525
-6.91696e-05
-0.0053515
-3.42529e-05
-0.00481472
-8.01141e-06
-0.00433136
-1.90211e-06
-0.473366
-9.39081e-07
-0.429617
-9.72134e-07
-0.389909
-1.14308e-06
-0.353861
-1.31869e-06
-0.321145
-1.4273e-06
-0.291456
-1.45832e-06
-0.264514
-1.32424e-06
-0.240069
-9.20808e-07
-0.217878
-1.51502e-07
-0.197745
1.15329e-06
-0.179474
3.22381e-06
-0.162892
6.39897e-06
-0.147844
1.11067e-05
-0.134186
1.79029e-05
-0.121785
2.7377e-05
-0.110527
4.00424e-05
-0.100302
5.6209e-05
-0.0910142
7.57077e-05
-0.0825763
9.76496e-05
-0.0749031
0.000120312
-0.0679416
0.000141186
-0.0616141
0.000157551
-0.0558789
0.000167017
-0.050679
0.000168314
-0.0459644
0.000161578
-0.0416961
0.00014817
-0.0378299
0.000130194
-0.0343263
0.000109793
-0.0311507
8.87639e-05
-0.0282716
6.84533e-05
-0.0256597
4.97054e-05
-0.0232901
3.31799e-05
-0.0211385
1.90498e-05
-0.0191862
6.40878e-06
-0.0174134
-6.31272e-06
-0.0158047
-1.91102e-05
-0.0143445
-2.97955e-05
-0.013019
-3.60627e-05
-0.0118158
-3.86999e-05
-0.0107236
-4.2019e-05
-0.00973198
-5.06138e-05
-0.00883153
-6.62506e-05
-0.00801535
-8.50895e-05
-0.0072739
-0.000101519
-0.0065963
-0.00010349
-0.00595627
-8.58157e-05
-0.00536334
-5.73548e-05
-0.00482473
-2.42182e-05
-0.00434101
1.61583e-06
-0.00390685
3.17344e-06
-0.473365
-8.62394e-07
-0.429617
-8.79913e-07
-0.389909
-1.01127e-06
-0.353861
-1.14793e-06
-0.321145
-1.2449e-06
-0.291456
-1.3172e-06
-0.264514
-1.2481e-06
-0.240069
-9.32824e-07
-0.217879
-2.83653e-07
-0.197746
8.53894e-07
-0.179476