/*--------------------------------*- C++ -*----------------------------------*\
  =========                 |
  \\      /  F ield         | OpenFOAM: The Open Source CFD Toolbox
   \\    /   O peration     | Website:  https://openfoam.org
    \\  /    A nd           | Version:  dev
     \\/     M anipulation  |
\*---------------------------------------------------------------------------*/
FoamFile
{
    version     2.0;
    format      ascii;
    class       volVectorField;
    location    "350";
    object      U;
}
// * * * * * * * * * * * * * * * * * * * * * * * * * * * * * * * * * * * * * //

dimensions      [0 1 -1 0 0 0 0];

internalField   nonuniform List<vector> 
29380
(
(51.0665 -0.0038664 0)
(51.0656 -0.00724392 0)
(51.057 -0.000529236 0)
(51.0641 -0.00840362 0)
(51.056 -0.00226511 0)
(51.0617 -0.00476605 0)
(51.0631 -0.00817755 0)
(51.0578 -0.00214747 0)
(51.0633 -0.00379554 0)
(51.0679 -0.00140626 0)
(51.0628 -0.00660839 0)
(51.0605 -0.00106697 0)
(51.0669 -0.00217972 0)
(51.0695 0.00130019 0)
(51.0744 -0.00271778 0)
(51.0633 -0.00418316 0)
(51.0635 0.000371804 0)
(51.0697 -0.000900203 0)
(51.0705 0.0025946 0)
(51.0755 -0.000734305 0)
(51.0759 -0.00048361 0)
(51.0641 -0.00170876 0)
(51.0658 0.00147598 0)
(51.0714 -0.000192473 0)
(51.0711 0.00279433 0)
(51.0749 0.000186966 0)
(51.0761 0.000691294 0)
(51.0785 -0.00189908 0)
(51.0649 6.86756e-05 0)
(51.067 0.00172278 0)
(51.0716 -0.000285788 0)
(51.0712 0.00214634 0)
(51.074 0.000391818 0)
(51.0756 0.000682072 0)
(51.0774 -0.000866759 0)
(51.0798 -0.00156124 0)
(51.0653 0.000682584 0)
(51.0669 0.00107246 0)
(51.0708 -0.00106429 0)
(51.0709 0.00107921 0)
(51.0729 -7.41431e-05 0)
(51.0748 0.000402252 0)
(51.0762 -0.00084647 0)
(51.0784 -0.00105909 0)
(51.0809 -0.00278732 0)
(51.0652 7.85595e-05 0)
(51.0661 -5.8406e-05 0)
(51.0699 -0.00219006 0)
(51.0705 0.000139252 0)
(51.0722 -0.000948348 0)
(51.0738 -7.01641e-05 0)
(51.075 -0.0010237 0)
(51.0772 -0.00117193 0)
(51.0791 -0.00233945 0)
(51.0819 -0.00308991 0)
(51.0647 -0.00144243 0)
(51.0648 -0.00105828 0)
(51.0695 -0.00324176 0)
(51.0702 -0.000338034 0)
(51.0719 -0.0018034 0)
(51.0731 -0.000453199 0)
(51.0742 -0.0013079 0)
(51.0761 -0.00119708 0)
(51.0779 -0.00230041 0)
(51.0801 -0.0027515 0)
(51.0828 -0.00402701 0)
(51.0642 -0.00337517 0)
(51.0638 -0.00143315 0)
(51.0697 -0.00388293 0)
(51.0702 -0.000334673 0)
(51.072 -0.00226653 0)
(51.0728 -0.000507269 0)
(51.074 -0.00141865 0)
(51.0754 -0.00111749 0)
(51.0768 -0.00212376 0)
(51.0789 -0.002671 0)
(51.0809 -0.00369939 0)
(51.0836 -0.00448982 0)
(51.0638 -0.00522005 0)
(51.0632 -0.00105598 0)
(51.0704 -0.00395319 0)
(51.0705 -5.36951e-05 0)
(51.0724 -0.00213603 0)
(51.0731 -0.000128467 0)
(51.0742 -0.00113529 0)
(51.0752 -0.000769454 0)
(51.0762 -0.00180984 0)
(51.0778 -0.00240107 0)
(51.0797 -0.00355209 0)
(51.0818 -0.00420528 0)
(51.0843 -0.00519772 0)
(51.0637 -0.00662429 0)
(51.0631 -0.000184956 0)
(51.0712 -0.00350478 0)
(51.0711 0.000245219 0)
(51.073 -0.00143526 0)
(51.0738 0.000645146 0)
(51.0748 -0.000383037 0)
(51.0753 -7.65726e-05 0)
(51.0758 -0.00123352 0)
(51.0769 -0.00194835 0)
(51.0784 -0.00321428 0)
(51.0804 -0.00406495 0)
(51.0824 -0.00495505 0)
(51.0849 -0.00567484 0)
(51.0639 -0.00744913 0)
(51.0636 0.000683115 0)
(51.0718 -0.0027459 0)
(51.0719 0.000422752 0)
(51.0737 -0.000371888 0)
(51.0749 0.00165461 0)
(51.0756 0.000749979 0)
(51.0757 0.000944595 0)
(51.0757 -0.000341119 0)
(51.0763 -0.00121485 0)
(51.0773 -0.00267512 0)
(51.079 -0.00373225 0)
(51.081 -0.0048387 0)
(51.0829 -0.00548447 0)
(51.0854 -0.00624736 0)
(51.0641 -0.0077295 0)
(51.0643 0.00108287 0)
(51.0721 -0.00196185 0)
(51.0728 0.000499209 0)
(51.0745 0.000749151 0)
(51.076 0.0026827 0)
(51.0764 0.00205858 0)
(51.0763 0.00219867 0)
(51.0759 0.000858927 0)
(51.076 -0.00016297 0)
(51.0764 -0.00183754 0)
(51.0777 -0.00317221 0)
(51.0794 -0.00453737 0)
(51.0815 -0.00541839 0)
(51.0834 -0.00610983 0)
(51.0858 -0.00668438 0)
(51.0642 -0.00760033 0)
(51.0651 0.000784214 0)
(51.0721 -0.0014143 0)
(51.0736 0.000602522 0)
(51.0754 0.00164155 0)
(51.0771 0.00352052 0)
(51.0772 0.00329862 0)
(51.077 0.0035391 0)
(51.0762 0.00229462 0)
(51.0758 0.00119979 0)
(51.0758 -0.000657689 0)
(51.0765 -0.00228073 0)
(51.0778 -0.00398606 0)
(51.0797 -0.00518411 0)
(51.0818 -0.00609988 0)
(51.0837 -0.00660889 0)
(51.0861 -0.00714867 0)
(51.0642 -0.00721133 0)
(51.066 -0.000114717 0)
(51.072 -0.00127705 0)
(51.0743 0.00082955 0)
(51.0764 0.00211257 0)
(51.078 0.00402704 0)
(51.078 0.00427217 0)
(51.0777 0.00481484 0)
(51.0766 0.00385477 0)
(51.0759 0.00281961 0)
(51.0753 0.00086788 0)
(51.0755 -0.00100822 0)
(51.0764 -0.00306857 0)
(51.078 -0.00468261 0)
(51.08 -0.00594844 0)
(51.0822 -0.00666581 0)
(51.0841 -0.0071332 0)
(51.0863 -0.00751225 0)
(51.0641 -0.00669184 0)
(51.0666 -0.00127461 0)
(51.0722 -0.00159712 0)
(51.0748 0.00115707 0)
(51.0773 0.00210323 0)
(51.0788 0.00415561 0)
(51.0788 0.00487901 0)
(51.0784 0.00590417 0)
(51.0773 0.00541238 0)
(51.0762 0.0046067 0)
(51.0751 0.00269669 0)
(51.0748 0.000651846 0)
(51.0751 -0.00172785 0)
(51.0763 -0.0037818 0)
(51.078 -0.00551755 0)
(51.0802 -0.00661698 0)
(51.0825 -0.00725734 0)
(51.0843 -0.00756234 0)
(51.0865 -0.00786876 0)
(51.0639 -0.00614548 0)
(51.0671 -0.00228075 0)
(51.0725 -0.00230425 0)
(51.0752 0.00141754 0)
(51.078 0.00166602 0)
(51.0794 0.00395114 0)
(51.0796 0.00512784 0)
(51.0793 0.00674258 0)
(51.0781 0.00685716 0)
(51.0767 0.00645341 0)
(51.0752 0.00474973 0)
(51.0743 0.00266049 0)
(51.074 4.35596e-05 0)
(51.0747 -0.00241486 0)
(51.0761 -0.00465909 0)
(51.0781 -0.00627997 0)
(51.0804 -0.00732465 0)
(51.0828 -0.0077574 0)
(51.0846 -0.00798843 0)
(51.0866 -0.0081479 0)
(51.0636 -0.00567499 0)
(51.0673 -0.00283513 0)
(51.073 -0.00323985 0)
(51.0754 0.00138512 0)
(51.0785 0.000927073 0)
(51.0799 0.0035159 0)
(51.0805 0.00510476 0)
(51.0804 0.00732047 0)
(51.0791 0.00810922 0)
(51.0775 0.00825324 0)
(51.0755 0.00692637 0)
(51.0741 0.00494574 0)
(51.0732 0.00220815 0)
(51.0733 -0.000573194 0)
(51.0742 -0.00329573 0)
(51.0759 -0.00548964 0)
(51.0782 -0.00710004 0)
(51.0806 -0.00795691 0)
(51.083 -0.00825258 0)
(51.0848 -0.0083455 0)
(51.0867 -0.00840574 0)
(51.0634 -0.00538946 0)
(51.0674 -0.00285581 0)
(51.0735 -0.0042106 0)
(51.0756 0.000890356 0)
(51.0788 3.2941e-05 0)
(51.0805 0.00296732 0)
(51.0815 0.00492393 0)
(51.0816 0.00767266 0)
(51.0803 0.00913251 0)
(51.0785 0.00991944 0)
(51.0762 0.00912168 0)
(51.0742 0.00741711 0)
(51.0727 0.00470003 0)
(51.0722 0.00170504 0)
(51.0725 -0.00141944 0)
(51.0738 -0.00415749 0)
(51.0758 -0.00640069 0)
(51.0783 -0.00786393 0)
(51.0809 -0.00859596 0)
(51.0832 -0.00867604 0)
(51.085 -0.00869061 0)
(51.0868 -0.00860537 0)
(51.0632 -0.00539094 0)
(51.0674 -0.00248179 0)
(51.0739 -0.00503604 0)
(51.0758 -7.57667e-05 0)
(51.0789 -0.00087753 0)
(51.0812 0.00240036 0)
(51.0825 0.00467945 0)
(51.0829 0.00784898 0)
(51.0818 0.00992173 0)
(51.0798 0.0113935 0)
(51.0771 0.011245 0)
(51.0746 0.00998071 0)
(51.0725 0.00744123 0)
(51.0713 0.00435937 0)
(51.071 0.000930484 0)
(51.0718 -0.00227797 0)
(51.0734 -0.00512321 0)
(51.0756 -0.00727629 0)
(51.0783 -0.00864751 0)
(51.081 -0.00917259 0)
(51.0834 -0.00908189 0)
(51.0851 -0.00898894 0)
(51.0867 -0.00878304 0)
(51.0631 -0.00573172 0)
(51.0673 -0.00197331 0)
(51.0741 -0.00559412 0)
(51.0761 -0.00134392 0)
(51.0791 -0.00169245 0)
(51.0819 0.00187097 0)
(51.0836 0.00441916 0)
(51.0843 0.00789392 0)
(51.0833 0.0104961 0)
(51.0814 0.0126483 0)
(51.0784 0.0132277 0)
(51.0754 0.0125514 0)
(51.0726 0.010353 0)
(51.0706 0.00732422 0)
(51.0698 0.00369762 0)
(51.0699 0.000103612 0)
(51.071 -0.00326583 0)
(51.0729 -0.0060725 0)
(51.0755 -0.0081864 0)
(51.0784 -0.00937841 0)
(51.0812 -0.00973889 0)
(51.0835 -0.00943337 0)
(51.0851 -0.00927633 0)
(51.0866 -0.00891816 0)
(51.0631 -0.00637466 0)
(51.0672 -0.00159168 0)
(51.0741 -0.00584213 0)
(51.0763 -0.00262447 0)
(51.0794 -0.0023269 0)
(51.0827 0.0013989 0)
(51.0847 0.00414486 0)
(51.0857 0.00783033 0)
(51.085 0.0108762 0)
(51.0831 0.0136764 0)
(51.08 0.015027 0)
(51.0765 0.0150605 0)
(51.0731 0.0133638 0)
(51.0704 0.0105387 0)
(51.0687 0.00683124 0)
(51.0683 0.00293238 0)
(51.0688 -0.000882293 0)
(51.0703 -0.00425453 0)
(51.0725 -0.00706864 0)
(51.0753 -0.00905463 0)
(51.0784 -0.0101042 0)
(51.0813 -0.010255 0)
(51.0836 -0.0097627 0)
(51.0851 -0.00953272 0)
(51.0865 -0.00902985 0)
(51.063 -0.00717565 0)
(51.0671 -0.00149409 0)
(51.074 -0.00582158 0)
(51.0765 -0.00362652 0)
(51.0797 -0.00272865 0)
(51.0834 0.000983005 0)
(51.0858 0.00383244 0)
(51.0871 0.00766217 0)
(51.0867 0.0110813 0)
(51.085 0.0144831 0)
(51.0819 0.0166175 0)
(51.078 0.0174538 0)
(51.074 0.0164089 0)
(51.0705 0.0139476 0)
(51.068 0.0102914 0)
(51.0668 0.00617162 0)
(51.0668 0.00196853 0)
(51.0678 -0.00188992 0)
(51.0696 -0.00530105 0)
(51.0721 -0.008032 0)
(51.0752 -0.00992299 0)
(51.0784 -0.0107817 0)
(51.0813 -0.01075 0)
(51.0836 -0.0100487 0)
(51.085 -0.00977647 0)
(51.0862 -0.00910693 0)
(51.0629 -0.0079132 0)
(51.0671 -0.00170262 0)
(51.0738 -0.00563709 0)
(51.0768 -0.00416705 0)
(51.0802 -0.00288393 0)
(51.0842 0.000616499 0)
(51.0867 0.00345905 0)
(51.0884 0.00738434 0)
(51.0884 0.0111202 0)
(51.087 0.0150728 0)
(51.084 0.0179833 0)
(51.08 0.0196876 0)
(51.0754 0.0194304 0)
(51.0711 0.0174989 0)
(51.0677 0.0140452 0)
(51.0657 0.0098052 0)
(51.065 0.00526017 0)
(51.0654 0.000951644 0)
(51.0668 -0.00296829 0)
(51.0689 -0.00632131 0)
(51.0717 -0.00899737 0)
(51.0749 -0.0107452 0)
(51.0783 -0.0114351 0)
(51.0813 -0.0112003 0)
(51.0835 -0.0103099 0)
(51.0849 -0.00999655 0)
(51.0859 -0.00916344 0)
(51.0628 -0.008357 0)
(51.0672 -0.00212766 0)
(51.0736 -0.00542618 0)
(51.077 -0.00423566 0)
(51.0806 -0.00282971 0)
(51.0849 0.000292403 0)
(51.0876 0.00302173 0)
(51.0896 0.00699861 0)
(51.0901 0.011003 0)
(51.0891 0.0154507 0)
(51.0863 0.01911 0)
(51.0822 0.0217207 0)
(51.0772 0.0223682 0)
(51.0722 0.0211356 0)
(51.0678 0.0180566 0)
(51.0648 0.013827 0)
(51.0633 0.00899936 0)
(51.0632 0.00424749 0)
(51.0641 -0.000158934 0)
(51.0658 -0.00402992 0)
(51.0682 -0.00734384 0)
(51.0713 -0.0099173 0)
(51.0747 -0.0115414 0)
(51.0782 -0.0120394 0)
(51.0812 -0.0116259 0)
(51.0834 -0.0105357 0)
(51.0847 -0.0102058 0)
(51.0855 -0.00919459 0)
(51.0627 -0.00835671 0)
(51.0673 -0.00263721 0)
(51.0735 -0.00531851 0)
(51.0772 -0.00398257 0)
(51.0811 -0.00265619 0)
(51.0854 -1.3172e-07 0)
(51.0884 0.00254102 0)
(51.0908 0.00652214 0)
(51.0917 0.0107419 0)
(51.0912 0.0156205 0)
(51.0888 0.0199842 0)
(51.0848 0.0235125 0)
(51.0795 0.0251602 0)
(51.0738 0.0247929 0)
(51.0685 0.0222785 0)
(51.0644 0.0182241 0)
(51.062 0.0132087 0)
(51.0611 0.00802474 0)
(51.0615 0.00310186 0)
(51.0629 -0.00127163 0)
(51.0649 -0.0050952 0)
(51.0676 -0.00831815 0)
(51.0709 -0.0108093 0)
(51.0745 -0.0122854 0)
(51.078 -0.0126144 0)
(51.0811 -0.0120145 0)
(51.0832 -0.0107396 0)
(51.0844 -0.0103996 0)
(51.085 -0.00920875 0)
(51.0626 -0.00790819 0)
(51.0674 -0.00311693 0)
(51.0735 -0.00540426 0)
(51.0774 -0.00365052 0)
(51.0814 -0.00249605 0)
(51.0859 -0.000284656 0)
(51.0891 0.00204886 0)
(51.0919 0.00598721 0)
(51.0932 0.0103623 0)
(51.0933 0.0155947 0)
(51.0913 0.0205965 0)
(51.0876 0.0250243 0)
(51.0821 0.0277379 0)
(51.0759 0.0283913 0)
(51.0697 0.0266452 0)
(51.0646 0.0229645 0)
(51.061 0.0179025 0)
(51.0592 0.0123359 0)
(51.059 0.00685777 0)
(51.0599 0.00191905 0)
(51.0617 -0.00239858 0)
(51.0641 -0.00611049 0)
(51.067 -0.00926283 0)
(51.0704 -0.0116473 0)
(51.0742 -0.0129955 0)
(51.0778 -0.0131472 0)
(51.0809 -0.0123789 0)
(51.0829 -0.0109167 0)
(51.084 -0.0105837 0)
(51.0844 -0.00920263 0)
(51.0625 -0.00718038 0)
(51.0675 -0.00350895 0)
(51.0735 -0.00570874 0)
(51.0775 -0.00347794 0)
(51.0817 -0.00249335 0)
(51.0862 -0.000599927 0)
(51.0897 0.00157082 0)
(51.0928 0.00543031 0)
(51.0947 0.00989464 0)
(51.0953 0.015393 0)
(51.0939 0.0209479 0)
(51.0905 0.0262265 0)
(51.0852 0.0300378 0)
(51.0786 0.031844 0)
(51.0716 0.0310709 0)
(51.0653 0.0279908 0)
(51.0605 0.0230704 0)
(51.0576 0.0172249 0)
(51.0566 0.0111913 0)
(51.057 0.00559995 0)
(51.0585 0.000695157 0)
(51.0607 -0.0034809 0)
(51.0633 -0.00709453 0)
(51.0664 -0.0101497 0)
(51.0699 -0.0124466 0)
(51.0738 -0.0136584 0)
(51.0775 -0.0136488 0)
(51.0806 -0.0127124 0)
(51.0825 -0.0110746 0)
(51.0835 -0.0107537 0)
(51.0836 -0.00918397 0)
(51.0624 -0.00646292 0)
(51.0676 -0.00380674 0)
(51.0735 -0.00618966 0)
(51.0776 -0.00361618 0)
(51.0819 -0.00276022 0)
(51.0865 -0.000992934 0)
(51.0903 0.00111135 0)
(51.0937 0.00487802 0)
(51.0961 0.00937167 0)
(51.0973 0.0150461 0)
(51.0965 0.0210532 0)
(51.0936 0.027105 0)
(51.0885 0.0320042 0)
(51.0817 0.0350593 0)
(51.074 0.035453 0)
(51.0667 0.033218 0)
(51.0606 0.0286712 0)
(51.0565 0.0227083 0)
(51.0544 0.0161782 0)
(51.0541 0.00988417 0)
(51.0553 0.00425367 0)
(51.0573 -0.000504327 0)
(51.0597 -0.00453517 0)
(51.0625 -0.00801762 0)
(51.0657 -0.0109926 0)
(51.0694 -0.0131948 0)
(51.0734 -0.0142826 0)
(51.0771 -0.0141114 0)
(51.0802 -0.013023 0)
(51.082 -0.0112103 0)
(51.0829 -0.0109137 0)
(51.0828 -0.0091507 0)
(51.0623 -0.00607004 0)
(51.0676 -0.00402569 0)
(51.0736 -0.00674314 0)
(51.0777 -0.00408717 0)
(51.082 -0.00333549 0)
(51.0868 -0.0014993 0)
(51.0907 0.000651874 0)
(51.0946 0.0043361 0)
(51.0973 0.00881382 0)
(51.0991 0.0145839 0)
(51.0989 0.0209395 0)
(51.0967 0.0276656 0)
(51.092 0.0336032 0)
(51.0852 0.0379572 0)
(51.0771 0.0396812 0)
(51.0687 0.0385375 0)
(51.0613 0.0346307 0)
(51.0558 0.0287677 0)
(51.0525 0.0218626 0)
(51.0513 0.0148795 0)
(51.0519 0.00842296 0)
(51.0537 0.00289425 0)
(51.0561 -0.00168815 0)
(51.0589 -0.00552865 0)
(51.0618 -0.00888969 0)
(51.0651 -0.0117774 0)
(51.0688 -0.0138983 0)
(51.0729 -0.0148598 0)
(51.0766 -0.0145428 0)
(51.0797 -0.0133073 0)
(51.0815 -0.0113291 0)
(51.0822 -0.0110619 0)
(51.0819 -0.0091074 0)
(51.0621 -0.00622299 0)
(51.0675 -0.00416978 0)
(51.0735 -0.00723625 0)
(51.0778 -0.00478727 0)
(51.0821 -0.00416265 0)
(51.0869 -0.00212365 0)
(51.0911 0.000161664 0)
(51.0953 0.00378841 0)
(51.0985 0.0082265 0)
(51.1008 0.0140323 0)
(51.1013 0.0206401 0)
(51.0998 0.0279309 0)
(51.0957 0.0348225 0)
(51.0891 0.0404732 0)
(51.0807 0.0436483 0)
(51.0715 0.0438265 0)
(51.0628 0.0408461 0)
(51.0558 0.0353497 0)
(51.0511 0.0282525 0)
(51.0488 0.0206576 0)
(51.0486 0.0133452 0)
(51.0499 0.0068936 0)
(51.0523 0.00152335 0)
(51.0551 -0.00281976 0)
(51.058 -0.00646573 0)
(51.061 -0.00969554 0)
(51.0644 -0.0125121 0)
(51.0682 -0.0145495 0)
(51.0723 -0.0153972 0)
(51.0761 -0.0149406 0)
(51.0792 -0.0135704 0)
(51.0809 -0.0114301 0)
(51.0815 -0.0111998 0)
(51.0809 -0.00905308 0)
(51.062 -0.00693785 0)
(51.0674 -0.00421269 0)
(51.0735 -0.00754312 0)
(51.0779 -0.00553957 0)
(51.0822 -0.00509447 0)
(51.0871 -0.00282634 0)
(51.0915 -0.000383238 0)
(51.096 0.00320698 0)
(51.0996 0.00759687 0)
(51.1024 0.0134017 0)
(51.1036 0.0201848 0)
(51.1028 0.0279338 0)
(51.0994 0.0356728 0)
(51.0933 0.0425715 0)
(51.0848 0.0472635 0)
(51.075 0.0489583 0)
(51.0651 0.0471915 0)
(51.0566 0.0423682 0)
(51.0503 0.0353217 0)
(51.0465 0.0272506 0)
(51.0453 0.0191181 0)
(51.046 0.0116724 0)
(51.0481 0.0053134 0)
(51.051 0.000185684 0)
(51.0541 -0.00389544 0)
(51.0572 -0.00732921 0)
(51.0602 -0.0104443 0)
(51.0637 -0.0131884 0)
(51.0675 -0.0151542 0)
(51.0716 -0.0158932 0)
(51.0754 -0.01531 0)
(51.0786 -0.0138108 0)
(51.0802 -0.0115173 0)
(51.0807 -0.0113259 0)
(51.0799 -0.00899322 0)
(51.0619 -0.00801229 0)
(51.0673 -0.00410138 0)
(51.0734 -0.0075865 0)
(51.0779 -0.00616235 0)
(51.0823 -0.00593674 0)
(51.0873 -0.00352682 0)
(51.0919 -0.000983369 0)
(51.0966 0.00256809 0)
(51.1005 0.00690648 0)
(51.1039 0.0126922 0)
(51.1057 0.0195943 0)
(51.1057 0.0277071 0)
(51.1031 0.0361778 0)
(51.0977 0.0442368 0)
(51.0894 0.0504566 0)
(51.0792 0.0538155 0)
(51.0683 0.0535305 0)
(51.0581 0.0497086 0)
(51.0501 0.0430118 0)
(51.0448 0.0346612 0)
(51.0422 0.0257957 0)
(51.0421 0.0173536 0)
(51.0437 0.00989759 0)
(51.0465 0.0037366 0)
(51.0499 -0.00110963 0)
(51.0533 -0.00489556 0)
(51.0564 -0.00812852 0)
(51.0595 -0.0111289 0)
(51.0629 -0.013814 0)
(51.0667 -0.0157126 0)
(51.0709 -0.0163532 0)
(51.0747 -0.0156497 0)
(51.0779 -0.0140331 0)
(51.0794 -0.01159 0)
(51.0798 -0.0114421 0)
(51.0788 -0.00892737 0)
(51.0618 -0.00907911 0)
(51.0673 -0.00379987 0)
(51.0734 -0.00737686 0)
(51.0779 -0.00653714 0)
(51.0824 -0.00650889 0)
(51.0875 -0.00412825 0)
(51.0922 -0.00160824 0)
(51.0971 0.00186803 0)
(51.1014 0.00614149 0)
(51.1052 0.011896 0)
(51.1077 0.0188778 0)
(51.1085 0.0272765 0)
(51.1068 0.0363667 0)
(51.1021 0.0454764 0)
(51.0943 0.0531846 0)
(51.0839 0.058297 0)
(51.0722 0.059725 0)
(51.0606 0.0572345 0)
(51.0508 0.0512315 0)
(51.0436 0.0428637 0)
(51.0395 0.0334061 0)
(51.0382 0.0240074 0)
(51.0391 0.0154205 0)
(51.0416 0.00808804 0)
(51.0451 0.00217949 0)
(51.0489 -0.00233549 0)
(51.0524 -0.00582546 0)
(51.0556 -0.00885772 0)
(51.0586 -0.011758 0)
(51.062 -0.0143873 0)
(51.0659 -0.016229 0)
(51.07 -0.0167764 0)
(51.0739 -0.0159645 0)
(51.0772 -0.0142368 0)
(51.0786 -0.0116519 0)
(51.0789 -0.0115483 0)
(51.0778 -0.00885881 0)
(51.0618 -0.00973224 0)
(51.0673 -0.00331777 0)
(51.0733 -0.00701431 0)
(51.0779 -0.00666234 0)
(51.0825 -0.00670547 0)
(51.0877 -0.00455096 0)
(51.0925 -0.00220597 0)
(51.0976 0.00113068 0)
(51.1021 0.00530806 0)
(51.1064 0.0110123 0)
(51.1095 0.0180395 0)
(51.1112 0.0266584 0)
(51.1104 0.0362647 0)
(51.1066 0.0463046 0)
(51.0994 0.0554234 0)
(51.0892 0.0623237 0)
(51.0769 0.0656462 0)
(51.064 0.0647987 0)
(51.0524 0.0598603 0)
(51.0432 0.0518019 0)
(51.0373 0.0419582 0)
(51.0346 0.0316829 0)
(51.0345 0.0219609 0)
(51.0365 0.0134036 0)
(51.0398 0.00626851 0)
(51.0439 0.000675572 0)
(51.048 -0.00349396 0)
(51.0516 -0.00668036 0)
(51.0547 -0.00952557 0)
(51.0578 -0.0123292 0)
(51.0611 -0.0149152 0)
(51.065 -0.0167038 0)
(51.0691 -0.0171673 0)
(51.0731 -0.0162548 0)
(51.0764 -0.0144244 0)
(51.0778 -0.011702 0)
(51.0781 -0.0116446 0)
(51.0769 -0.00878473 0)
(51.0617 -0.00969726 0)
(51.0674 -0.00274179 0)
(51.0732 -0.00666533 0)
(51.078 -0.00664169 0)
(51.0825 -0.00654784 0)
(51.0879 -0.00476395 0)
(51.0928 -0.00272222 0)
(51.098 0.000402116 0)
(51.1028 0.00443531 0)
(51.1075 0.0100537 0)
(51.1112 0.0170866 0)
(51.1136 0.0258639 0)
(51.1138 0.0358923 0)
(51.111 0.0467428 0)
(51.1047 0.0571671 0)
(51.0949 0.0658371 0)
(51.0823 0.0711796 0)
(51.0684 0.0722506 0)
(51.055 0.0687541 0)
(51.0438 0.0613849 0)
(51.0358 0.0514355 0)
(51.0313 0.0404223 0)
(51.03 0.0295813 0)
(51.0312 0.0197614 0)
(51.0341 0.01134 0)
(51.0382 0.00448165 0)
(51.0427 -0.000768852 0)
(51.0471 -0.004575 0)
(51.0508 -0.00746585 0)
(51.0539 -0.0101295 0)
(51.0569 -0.012851 0)
(51.0602 -0.0153971 0)
(51.064 -0.0171405 0)
(51.0682 -0.0175278 0)
(51.0722 -0.0165235 0)
(51.0757 -0.0145957 0)
(51.0771 -0.0117433 0)
(51.0774 -0.0117302 0)
(51.0762 -0.0087107 0)
(51.0617 -0.0089419 0)
(51.0675 -0.00224282 0)
(51.0732 -0.00651001 0)
(51.078 -0.00664658 0)
(51.0826 -0.00617538 0)
(51.0881 -0.00480855 0)
(51.093 -0.00312311 0)
(51.0983 -0.00026507 0)
(51.1034 0.00357221 0)
(51.1085 0.00905381 0)
(51.1128 0.0160386 0)
(51.1159 0.0249073 0)
(51.117 0.0352666 0)
(51.1153 0.0468094 0)
(51.11 0.058418 0)
(51.1009 0.0687971 0)
(51.0883 0.0762279 0)
(51.0737 0.0794449 0)
(51.0587 0.0777534 0)
(51.0453 0.0714896 0)
(51.0351 0.0617875 0)
(51.0285 0.0502521 0)
(51.0257 0.0383531 0)
(51.0259 0.0272271 0)
(51.0282 0.0174641 0)
(51.032 0.00928492 0)
(51.0367 0.00274319 0)
(51.0416 -0.00213859 0)
(51.0462 -0.00558294 0)
(51.05 -0.00817971 0)
(51.053 -0.0106784 0)
(51.0559 -0.0133226 0)
(51.0592 -0.0158376 0)
(51.063 -0.0175414 0)
(51.0672 -0.0178607 0)
(51.0714 -0.0167707 0)
(51.075 -0.0147531 0)
(51.0765 -0.0117756 0)
(51.0768 -0.0118081 0)
(51.0755 -0.00862963 0)
(51.0617 -0.00767877 0)
(51.0675 -0.00199532 0)
(51.0731 -0.00666679 0)
(51.078 -0.00683742 0)
(51.0827 -0.00580574 0)
(51.0882 -0.0047818 0)
(51.0932 -0.00341429 0)
(51.0987 -0.000831126 0)
(51.104 0.00277105 0)
(51.1094 0.0080594 0)
(51.1142 0.0149307 0)
(51.1181 0.0238132 0)
(51.1201 0.0344091 0)
(51.1195 0.0465276 0)
(51.1153 0.0591886 0)
(51.1071 0.0711793 0)
(51.0949 0.0807102 0)
(51.0798 0.086245 0)
(51.0634 0.0866894 0)
(51.048 0.0819628 0)
(51.0353 0.0729251 0)
(51.0265 0.0611675 0)
(51.0217 0.0483477 0)
(51.0206 0.0358953 0)
(51.0221 0.0246982 0)
(51.0256 0.0151407 0)
(51.0301 0.00726588 0)
(51.0353 0.00107688 0)
(51.0406 -0.00343244 0)
(51.0453 -0.0065109 0)
(51.0491 -0.00882892 0)
(51.0521 -0.0111721 0)
(51.0549 -0.01375 0)
(51.0581 -0.0162377 0)
(51.0619 -0.0179094 0)
(51.0663 -0.0181675 0)
(51.0706 -0.0169991 0)
(51.0744 -0.0148975 0)
(51.076 -0.0118034 0)
(51.0763 -0.0118761 0)
(51.0751 -0.00856025 0)
(51.0617 -0.00629426 0)
(51.0675 -0.00212956 0)
(51.073 -0.00714302 0)
(51.078 -0.00727393 0)
(51.0827 -0.00566026 0)
(51.0883 -0.00480834 0)
(51.0934 -0.00363843 0)
(51.0989 -0.00128743 0)
(51.1044 0.00207205 0)
(51.1102 0.00712063 0)
(51.1154 0.0138101 0)
(51.12 0.0226208 0)
(51.1229 0.0333515 0)
(51.1234 0.0459241 0)
(51.1205 0.0594964 0)
(51.1134 0.0729736 0)
(51.1019 0.0845642 0)
(51.0867 0.0925269 0)
(51.0693 0.0953935 0)
(51.052 0.0926308 0)
(51.0368 0.0847204 0)
(51.0254 0.0731226 0)
(51.0183 0.0596101 0)
(51.0154 0.0458809 0)
(51.0159 0.0331516 0)
(51.0188 0.0220871 0)
(51.0232 0.0128342 0)
(51.0284 0.00531777 0)
(51.034 -0.00051144 0)
(51.0396 -0.00464159 0)
(51.0445 -0.00736587 0)
(51.0483 -0.00941525 0)
(51.0512 -0.011618 0)
(51.0539 -0.0141335 0)
(51.057 -0.0166018 0)
(51.0609 -0.0182467 0)
(51.0654 -0.0184513 0)
(51.07 -0.0172107 0)
(51.074 -0.015032 0)
(51.0757 -0.0118213 0)
(51.0762 -0.0119384 0)
(51.0649 -0.00850932 0)
(51.0617 -0.00524388 0)
(51.0675 -0.0026764 0)
(51.0728 -0.00783277 0)
(51.078 -0.00789625 0)
(51.0828 -0.00587103 0)
(51.0883 -0.00499429 0)
(51.0935 -0.00386139 0)
(51.0992 -0.00165878 0)
(51.1049 0.00148526 0)
(51.1109 0.00627371 0)
(51.1166 0.0127248 0)
(51.1218 0.02138 0)
(51.1256 0.0321388 0)
(51.1272 0.0450388 0)
(51.1255 0.0593728 0)
(51.1197 0.0741853 0)
(51.1091 0.0877462 0)
(51.0942 0.0981829 0)
(51.0762 0.103698 0)
(51.0572 0.1033 0)
(51.0396 0.0970101 0)
(51.0253 0.0860272 0)
(51.0156 0.0721441 0)
(51.0106 0.0572803 0)
(51.0097 0.0429789 0)
(51.0117 0.0302387 0)
(51.0158 0.0194556 0)
(51.021 0.010593 0)
(51.0268 0.00345227 0)
(51.0328 -0.00200878 0)
(51.0386 -0.00576855 0)
(51.0436 -0.00814673 0)
(51.0474 -0.00994658 0)
(51.0502 -0.0120161 0)
(51.0529 -0.0144789 0)
(51.056 -0.0169326 0)
(51.0599 -0.018557 0)
(51.0646 -0.018715 0)
(51.0695 -0.0174079 0)
(51.0738 -0.0151528 0)
(51.0756 -0.0118348 0)
(51.0778 -0.0119759 0)
(50.9861 -0.00805662 0)
(51.0616 -0.00480442 0)
(51.0675 -0.00348411 0)
(51.0727 -0.008552 0)
(51.0781 -0.00854282 0)
(51.0829 -0.00643194 0)
(51.0884 -0.00537577 0)
(51.0936 -0.00414713 0)
(51.0994 -0.00199493 0)
(51.1052 0.000989495 0)
(51.1115 0.00552955 0)
(51.1176 0.0117119 0)
(51.1234 0.0201423 0)
(51.128 0.0308264 0)
(51.1307 0.0439216 0)
(51.1303 0.0588593 0)
(51.1259 0.0748366 0)
(51.1165 0.0902339 0)
(51.1022 0.103126 0)
(51.084 0.111449 0)
(51.0636 0.113771 0)
(51.0437 0.1096 0)
(51.0266 0.0997468 0)
(51.0139 0.0859058 0)
(51.0064 0.0701493 0)
(51.0035 0.0543265 0)
(51.0044 0.0397856 0)
(51.008 0.0272404 0)
(51.0131 0.0168686 0)
(51.019 0.0084385 0)
(51.0253 0.00168712 0)
(51.0316 -0.00341542 0)
(51.0377 -0.00681164 0)
(51.0428 -0.00886339 0)
(51.0465 -0.0104241 0)
(51.0493 -0.012373 0)
(51.0519 -0.0147878 0)
(51.0549 -0.0172335 0)
(51.059 -0.0188427 0)
(51.064 -0.0189611 0)
(51.0692 -0.0175885 0)
(51.0738 -0.0152671 0)
(51.0754 -0.0118622 0)
(51.0587 -0.0116736 0)
(50.7976 -0.00683366 0)
(51.0615 -0.0050692 0)
(51.0674 -0.00433453 0)
(51.0726 -0.00907737 0)
(51.0781 -0.00902149 0)
(51.0829 -0.00720562 0)
(51.0884 -0.00590938 0)
(51.0937 -0.00452587 0)
(51.0996 -0.002352 0)
(51.1056 0.000538599 0)
(51.1121 0.00486964 0)
(51.1185 0.0107848 0)
(51.1249 0.0189491 0)
(51.1302 0.029471 0)
(51.134 0.0426336 0)
(51.1349 0.0580132 0)
(51.1319 0.0749685 0)
(51.1239 0.0920297 0)
(51.1106 0.107294 0)
(51.0925 0.118508 0)
(51.0712 0.123842 0)
(51.0493 0.122267 0)
(51.0293 0.114104 0)
(51.0135 0.100804 0)
(51.0029 0.0844964 0)
(50.9977 0.0673015 0)
(50.997 0.0509211 0)
(50.9998 0.03641 0)
(51.0047 0.0242408 0)
(51.0107 0.0143608 0)
(51.0172 0.00639416 0)
(51.0238 2.42693e-05 0)
(51.0305 -0.00472622 0)
(51.0367 -0.00777833 0)
(51.0419 -0.00951571 0)
(51.0456 -0.0108549 0)
(51.0484 -0.0126894 0)
(51.0509 -0.0150643 0)
(51.054 -0.0175069 0)
(51.0582 -0.0191067 0)
(51.0636 -0.0191886 0)
(51.0692 -0.0177585 0)
(51.0743 -0.0153781 0)
(51.0678 -0.0119055 0)
(50.9302 -0.0102346 0)
(50.5418 -0.00535492 0)
(51.0615 -0.00593843 0)
(51.0673 -0.00498874 0)
(51.0725 -0.00927307 0)
(51.0781 -0.00918535 0)
(51.0829 -0.00796519 0)
(51.0884 -0.00648735 0)
(51.0938 -0.00498354 0)
(51.0997 -0.00276711 0)
(51.1059 7.93523e-05 0)
(51.1126 0.00425511 0)
(51.1193 0.00993265 0)
(51.1262 0.0178214 0)
(51.1323 0.0281208 0)
(51.137 0.041236 0)
(51.1392 0.0568993 0)
(51.1377 0.0746384 0)
(51.1313 0.0931611 0)
(51.1192 0.110656 0)
(51.1017 0.124765 0)
(51.0799 0.133325 0)
(51.0563 0.13478 0)
(51.0335 0.128879 0)
(51.0144 0.116694 0)
(51.0005 0.100281 0)
(50.9925 0.0819639 0)
(50.9897 0.0637986 0)
(50.9912 0.0472025 0)
(50.9956 0.03296 0)
(51.0018 0.0212927 0)
(51.0086 0.0119658 0)
(51.0155 0.00446689 0)
(51.0225 -0.0015277 0)
(51.0294 -0.00594794 0)
(51.0358 -0.00866969 0)
(51.041 -0.0101122 0)
(51.0448 -0.0112399 0)
(51.0475 -0.0129703 0)
(51.05 -0.0153105 0)
(51.0532 -0.0177558 0)
(51.0577 -0.0193488 0)
(51.0634 -0.019404 0)
(51.0695 -0.0179158 0)
(51.0744 -0.0155266 0)
(50.9861 -0.0113331 0)
(50.7014 -0.00803012 0)
(50.2495 -0.00391574 0)
(51.0614 -0.00697998 0)
(51.0673 -0.00522295 0)
(51.0725 -0.00909041 0)
(51.0781 -0.00900787 0)
(51.083 -0.00846843 0)
(51.0885 -0.00696898 0)
(51.0938 -0.00546703 0)
(51.0999 -0.00324362 0)
(51.1061 -0.000426702 0)
(51.113 0.00363963 0)
(51.1201 0.00912545 0)
(51.1274 0.0167576 0)
(51.1341 0.0268056 0)
(51.1398 0.0397843 0)
(51.1433 0.0555869 0)
(51.1433 0.0739166 0)
(51.1385 0.0936793 0)
(51.1279 0.113212 0)
(51.1113 0.130142 0)
(51.0895 0.142049 0)
(51.0646 0.1469 0)
(51.0394 0.143825 0)
(51.0169 0.133383 0)
(50.9994 0.117409 0)
(50.9881 0.0983293 0)
(50.9827 0.0785263 0)
(50.9825 0.0598118 0)
(50.986 0.0433067 0)
(50.9919 0.0295105 0)
(50.9991 0.0184435 0)
(51.0066 0.0096978 0)
(51.0139 0.00266858 0)
(51.0211 -0.0029743 0)
(51.0282 -0.00708025 0)
(51.0349 -0.00949239 0)
(51.0403 -0.0106526 0)
(51.044 -0.0115854 0)
(51.0467 -0.0132169 0)
(51.0493 -0.0155308 0)
(51.0526 -0.0179826 0)
(51.0574 -0.0195768 0)
(51.0636 -0.0196012 0)
(51.0704 -0.0181103 0)
(51.0359 -0.015358 0)
(50.7848 -0.00971598 0)
(50.4174 -0.00579582 0)
(49.9418 -0.00260639 0)
(51.0614 -0.0078952 0)
(51.0672 -0.00505044 0)
(51.0725 -0.00857467 0)
(51.0781 -0.00855814 0)
(51.083 -0.00858511 0)
(51.0885 -0.00724384 0)
(51.0939 -0.00589989 0)
(51.1 -0.00375188 0)
(51.1063 -0.00098689 0)
(51.1134 0.00299093 0)
(51.1207 0.00832709 0)
(51.1284 0.0157383 0)
(51.1358 0.0255342 0)
(51.1424 0.0383169 0)
(51.147 0.054138 0)
(51.1485 0.0728783 0)
(51.1454 0.0936533 0)
(51.1366 0.114995 0)
(51.1213 0.134599 0)
(51.1 0.149884 0)
(51.0742 0.158403 0)
(51.0469 0.158674 0)
(51.0212 0.150631 0)
(50.9999 0.135729 0)
(50.9848 0.116362 0)
(50.9763 0.0951735 0)
(50.9738 0.0743859 0)
(50.976 0.0555104 0)
(50.9814 0.0393376 0)
(50.9887 0.0261285 0)
(50.9968 0.0157189 0)
(51.0048 0.00757461 0)
(51.0124 0.000997241 0)
(51.0198 -0.00431404 0)
(51.0272 -0.00813056 0)
(51.034 -0.0102477 0)
(51.0395 -0.0111439 0)
(51.0434 -0.0118916 0)
(51.0461 -0.013434 0)
(51.0487 -0.0157268 0)
(51.0523 -0.0181933 0)
(51.0575 -0.0197825 0)
(51.0644 -0.0198003 0)
(51.0581 -0.0182636 0)
(50.8751 -0.014092 0)
(50.5134 -0.00785068 0)
(50.1056 -0.00371124 0)
(49.6325 -0.00148146 0)
(51.0614 -0.00845183 0)
(51.0672 -0.00465598 0)
(51.0724 -0.00795796 0)
(51.0781 -0.00798543 0)
(51.0831 -0.00829819 0)
(51.0886 -0.00727906 0)
(51.094 -0.00621685 0)
(51.1001 -0.00423779 0)
(51.1066 -0.0015781 0)
(51.1137 0.00230277 0)
(51.1213 0.00751161 0)
(51.1294 0.0147364 0)
(51.1373 0.024298 0)
(51.1447 0.0368554 0)
(51.1505 0.0526031 0)
(51.1534 0.0715955 0)
(51.1521 0.0931623 0)
(51.1451 0.116061 0)
(51.1314 0.138133 0)
(51.1109 0.156732 0)
(51.085 0.169092 0)
(51.056 0.173153 0)
(51.0273 0.168162 0)
(51.0021 0.155034 0)
(50.983 0.135967 0)
(50.9708 0.113766 0)
(50.9655 0.0910428 0)
(50.9657 0.0697496 0)
(50.9701 0.0510334 0)
(50.9772 0.0353876 0)
(50.9858 0.0228552 0)
(50.9946 0.0131448 0)
(51.0031 0.005599 0)
(51.0109 -0.000545147 0)
(51.0186 -0.00555537 0)
(51.0262 -0.0090998 0)
(51.0333 -0.0109417 0)
(51.0389 -0.0115864 0)
(51.0428 -0.0121653 0)
(51.0456 -0.0136229 0)
(51.0485 -0.0159047 0)
(51.0523 -0.0183809 0)
(51.0579 -0.0199784 0)
(51.0629 -0.0200337 0)
(50.9481 -0.0176112 0)
(50.6217 -0.0121772 0)
(50.2038 -0.00604083 0)
(49.7847 -0.00188896 0)
(49.3307 -0.000550805 0)
(51.0613 -0.00849551 0)
(51.0672 -0.00425642 0)
(51.0724 -0.00740407 0)
(51.0781 -0.00750011 0)
(51.0831 -0.00770714 0)
(51.0886 -0.00711282 0)
(51.0941 -0.0063939 0)
(51.1002 -0.00464565 0)
(51.1067 -0.00215255 0)
(51.1141 0.0015964 0)
(51.1218 0.006675 0)
(51.1302 0.0137315 0)
(51.1387 0.0230798 0)
(51.1468 0.0354042 0)
(51.1536 0.0510151 0)
(51.158 0.0701296 0)
(51.1584 0.0922865 0)
(51.1533 0.116487 0)
(51.1415 0.140776 0)
(51.1224 0.162545 0)
(51.0967 0.178809 0)
(51.0665 0.187005 0)
(51.0352 0.185673 0)
(51.0063 0.175061 0)
(50.9828 0.156989 0)
(50.9665 0.134277 0)
(50.9577 0.109868 0)
(50.9555 0.0861807 0)
(50.9585 0.0647957 0)
(50.965 0.0465051 0)
(50.9736 0.0315189 0)
(50.9832 0.019728 0)
(50.9927 0.0107316 0)
(51.0015 0.00377615 0)
(51.0096 -0.00196677 0)
(51.0174 -0.00669986 0)
(51.0253 -0.00999511 0)
(51.0326 -0.0115755 0)
(51.0384 -0.0119869 0)
(51.0424 -0.0124067 0)
(51.0454 -0.0137906 0)
(51.0484 -0.0160584 0)
(51.0525 -0.0185585 0)
(51.0588 -0.0201829 0)
(51.0029 -0.0198837 0)
(50.7196 -0.0158596 0)
(50.3179 -0.0102625 0)
(49.879 -0.00439499 0)
(49.467 -0.000366889 0)
(49.0423 0.000194869 0)
(51.0612 -0.0080418 0)
(51.0672 -0.00414 0)
(51.0723 -0.00704396 0)
(51.0781 -0.00715176 0)