/*--------------------------------*- C++ -*----------------------------------*\
  =========                 |
  \\      /  F ield         | OpenFOAM: The Open Source CFD Toolbox
   \\    /   O peration     | Website:  https://openfoam.org
    \\  /    A nd           | Version:  dev
     \\/     M anipulation  |
\*---------------------------------------------------------------------------*/
FoamFile
{
    version     2.0;
    format      ascii;
    class       volScalarField;
    location    "350";
    object      yPlus;
}
// * * * * * * * * * * * * * * * * * * * * * * * * * * * * * * * * * * * * * //

dimensions      [0 0 0 0 0 0 0];

internalField   uniform 0;

boundaryField
{
    inlet-l
    {
        type            calculated;
        value           uniform 0;
    }
    airfoil-l1
    {
        type            calculated;
        value           nonuniform List<scalar> 
71
(
191.511
214.777
249.868
283.681
310.256
327.66
337.974
343.152
344.685
343.707
340.908
337.046
331.686
325.269
318.192
310.722
303.031
295.223
287.355
279.508
271.743
264.081
256.552
249.184
242.006
235.04
228.31
221.828
215.642
209.781
204.28
199.182
194.532
190.368
186.751
183.713
181.278
179.436
178.145
177.358
176.958
176.864
177.041
177.341
177.755
178.125
178.496
178.745
178.871
178.828
178.633
178.196
177.491
176.588
175.443
174.028
172.425
170.582
168.57
166.36
164.037
161.571
159.01
156.38
153.686
150.978
148.259
145.577
142.912
140.405
137.776
)
;
    }
    empty-1
    {
        type            empty;
    }
    empty-2
    {
        type            empty;
    }
    wall-l1
    {
        type            calculated;
        value           nonuniform List<scalar> 
104
(
20.6816
12.8831
16.7311
14.4182
14.1316
12.5729
12.6043
15.6918
15.4562
14.571
14.162
13.8965
14.4153
13.946
13.9195
13.8707
13.3022
13.7184
13.5036
13.3425
13.71
13.5324
13.616
13.7328
13.6661
13.7801
13.7897
13.8504
13.9568
14.023
14.1656
14.2557
14.3672
14.5419
14.7075
14.9262
15.1089
15.165
15.0941
14.8833
14.6157
14.3957
14.2566
14.2233
14.2987
14.4805
14.78
15.1664
15.5548
15.8245
15.8651
15.6406
15.2263
14.7843
14.4642
14.3194
14.3194
14.4063
14.4967
14.5085
14.4286
14.3253
14.2827
14.3618
14.6169
15.0403
15.4643
15.6349
15.4111
14.8956
14.3993
14.1611
14.1181
14.1728
14.5238
15.4057
16.6147
17.6955
18.3249
18.3904
17.9426
17.151
16.2639
15.5354
15.1108
14.9951
15.1612
15.6239
16.3539
17.1901
17.898
18.2922
18.2909
17.9284
17.3308
16.6767
16.1264
15.7667
15.6066
15.6175
15.7679
16.0278
16.3864
16.8067
)
;
    }
    airfoil-l2
    {
        type            calculated;
        value           nonuniform List<scalar> 
104
(
137.423
139.793
141.64
142.973
143.94
144.625
145.087
145.369
145.518
145.565
145.491
145.318
145.076
144.79
144.468
144.116
143.735
143.352
142.946
142.527
142.105
141.678
141.245
140.801
140.354
139.908
139.456
139.003
138.547
138.085
137.617
137.158
136.706
136.243
135.775
135.311
134.849
134.39
133.929
133.465
132.999
132.532
132.065
131.6
131.138
130.674
130.208
129.74
129.275
128.808
128.339
127.868
127.397
126.927
126.455
125.98
125.5
125.021
124.541
124.058
123.568
123.078
122.589
122.088
121.585
121.077
120.563
120.042
119.518
118.995
118.461
117.912
117.36
116.801
116.221
115.645
115.056
114.447
113.827
113.193
112.542
111.866
111.182
110.471
109.732
108.97
108.181
107.355
106.482
105.578
104.628
103.621
102.551
101.409
100.185
98.8596
97.4145
95.8267
94.0612
92.0446
89.7322
86.8454
83.576
77.2862
)
;
    }
    empty-3
    {
        type            empty;
    }
    empty-4
    {
        type            empty;
    }
    wall-l2
    {
        type            calculated;
        value           nonuniform List<scalar> 
51
(
17.0459
17.3239
17.3433
17.0618
16.6509
16.2433
15.9138
15.8559
16.0484
16.4834
17.1259
17.7419
18.1304
18.1739
17.883
17.4227
16.9947
16.7584
16.7664
16.9889
17.3547
17.7333
17.992
18.0519
17.9108
17.652
17.3844
17.2002
17.1517
17.2472
17.4673
17.7693
18.0884
18.3561
18.5068
18.4898
18.2806
17.9055
17.4846
17.2314
17.3142
17.5833
17.6619
17.4089
16.9693
16.8484
17.3468
18.1164
18.6972
19.0961
18.8043
)
;
    }
    outlet-l
    {
        type            calculated;
        value           uniform 0;
    }
    empty-5
    {
        type            empty;
    }
    empty-6
    {
        type            empty;
    }
    outlet-h
    {
        type            calculated;
        value           uniform 0;
    }
    wall-h2
    {
        type            calculated;
        value           nonuniform List<scalar> 
51
(
16.0537
16.037
16.0291
16.0465
16.0961
16.1815
16.3025
16.4426
16.5832
16.7072
16.7997
16.8578
16.8912
16.914
16.9402
16.9783
17.0279
17.0839
17.1412
17.1975
17.2526
17.306
17.3536
17.3895
17.4109
17.4234
17.4406
17.4776
17.5407
17.6211
17.6949
17.7349
17.724
17.666
17.5826
17.5023
17.4443
17.4097
17.3807
17.3323
17.247
17.13
17.0087
16.9194
16.8824
16.8873
16.8923
16.8546
16.7499
16.6056
16.4365
)
;
    }
    empty-7
    {
        type            empty;
    }
    empty-8
    {
        type            empty;
    }
    airfoil-h2
    {
        type            calculated;
        value           nonuniform List<scalar> 
104
(
136.077
138.411
140.244
141.577
142.551
143.258
143.747
144.064
144.249
144.34
144.332
144.231
144.063
143.84
143.572
143.278
142.956
142.626
142.271
141.911
141.54
141.158
140.769
140.376
139.976
139.561
139.152
138.737
138.313
137.892
137.465
137.03
136.593
136.166
135.733
135.293
134.847
134.398
133.955
133.505
133.059
132.606
132.153
131.698
131.245
130.79
130.331
129.869
129.406
128.938
128.479
128.004
127.534
127.067
126.593
126.116
125.643
125.163
124.674
124.191
123.698
123.211
122.71
122.209
121.705
121.198
120.685
120.163
119.638
119.107
118.562
118.02
117.466
116.904
116.332
115.747
115.156
114.546
113.926
113.29
112.634
111.967
111.28
110.564
109.827
109.068
108.274
107.448
106.584
105.677
104.722
103.709
102.631
101.485
100.254
98.9252
97.4748
95.875
94.0895
92.0559
89.7297
86.8291
83.5502
77.2175
)
;
    }
    wall-h1
    {
        type            calculated;
        value           nonuniform List<scalar> 
104
(
13.0575
13.7576
13.876
13.8559
13.7465
13.7323
13.9248
13.8534
13.8176
13.8788
13.8979
13.9117
13.8831
13.8844
13.9075
13.9196
13.9559
13.9719
13.9859
14.0052
14.0097
14.0242
14.0426
14.0606
14.0814
14.0958
14.1043
14.1078
14.109
14.1128
14.122
14.1371
14.1562
14.1751
14.1909
14.2022
14.2107
14.2199
14.2326
14.2505
14.274
14.2991
14.3249
14.3483
14.3713
14.3952
14.4242
14.4603
14.5032
14.5487
14.5885
14.6164
14.6287
14.6287
14.6259
14.6325
14.656
14.6986
14.7526
14.804
14.8354
14.8392
14.8205
14.7965
14.7858
14.8009
14.8455
14.9101
14.975
15.0197
15.0331
15.0204
15.001
14.9984
15.0287
15.0964
15.1914
15.2925
15.3737
15.4149
15.4132
15.3832
15.3491
15.3328
15.3507
15.407
15.497
15.6078
15.7218
15.8244
15.9036
15.9561
15.9814
15.9847
15.9715
15.9522
15.9361
15.9332
15.9487
15.98
16.0189
16.0543
16.0724
16.0711
)
;
    }
    empty-9
    {
        type            empty;
    }
    empty-10
    {
        type            empty;
    }
    inlet-h
    {
        type            calculated;
        value           uniform 0;
    }
    airfoil-h1
    {
        type            calculated;
        value           nonuniform List<scalar> 
71
(
189.652
210.078
244.591
279.146
307.494
326.881
338.946
345.516
348.091
347.839
345.533
341.893
336.819
330.487
323.346
315.705
307.761
299.643
291.411
283.174
274.986
266.875
258.889
251.059
243.393
235.942
228.724
221.778
215.12
208.789
202.833
197.302
192.24
187.692
183.728
180.375
177.668
175.618
174.175
173.273
172.823
172.717
172.889
173.244
173.747
174.221
174.674
175.033
175.286
175.404
175.317
175.058
174.539
173.787
172.78
171.506
170.025
168.32
166.395
164.304
162.052
159.671
157.185
154.625
152.005
149.339
146.693
144.055
141.455
139.016
136.44
)
;
    }
    empty-11
    {
        type            empty;
    }
    empty-12
    {
        type            empty;
    }
}


// ************************************************************************* //
