/*--------------------------------*- C++ -*----------------------------------*\
  =========                 |
  \\      /  F ield         | OpenFOAM: The Open Source CFD Toolbox
   \\    /   O peration     | Website:  https://openfoam.org
    \\  /    A nd           | Version:  dev
     \\/     M anipulation  |
\*---------------------------------------------------------------------------*/
FoamFile
{
    version     2.0;
    format      ascii;
    class       surfaceScalarField;
    location    "275";
    object      phi;
}
// * * * * * * * * * * * * * * * * * * * * * * * * * * * * * * * * * * * * * //

dimensions      [0 3 -1 0 0 0 0];

internalField   nonuniform List<scalar> 
58294
(
-0.473346
2.84204e-05
-0.47335
2.54502e-05
-0.42952
2.58572e-05
-0.473352
2.30126e-05
-0.429519
2.41204e-05
-0.389819
2.56341e-05
-0.473355
2.11917e-05
-0.429519
2.28479e-05
-0.389819
2.34196e-05
-0.353777
2.24433e-05
-0.473358
1.95152e-05
-0.429519
2.15977e-05
-0.389819
2.25515e-05
-0.353775
2.13421e-05
-0.321065
2.04099e-05
-0.47336
1.80664e-05
-0.42952
2.05702e-05
-0.389819
2.2278e-05
-0.353774
2.13065e-05
-0.321063
1.93933e-05
-0.291379
1.63032e-05
-0.473362
1.66699e-05
-0.429522
1.94967e-05
-0.389821
2.208e-05
-0.353773
2.17317e-05
-0.321062
1.96067e-05
-0.291376
1.60081e-05
-0.264434
1.20203e-05
-0.473365
1.53496e-05
-0.429524
1.85099e-05
-0.389823
2.18037e-05
-0.353774
2.22731e-05
-0.321061
2.05116e-05
-0.291373
1.66556e-05
-0.26443
1.19324e-05
-0.239986
6.75877e-06
-0.473367
1.39797e-05
-0.429526
1.74304e-05
-0.389826
2.13002e-05
-0.353775
2.27086e-05
-0.32106
2.16169e-05
-0.291371
1.80933e-05
-0.264427
1.29928e-05
-0.239982
7.29653e-06
-0.217788
1.36005e-06
-0.473369
1.26021e-05
-0.429528
1.63953e-05
-0.389829
2.06226e-05
-0.353776
2.28234e-05
-0.32106
2.26192e-05
-0.291369
1.98527e-05
-0.264424
1.50395e-05
-0.239978
8.81828e-06
-0.217783
2.25281e-06
-0.197647
-4.40742e-06
-0.473372
1.11729e-05
-0.429531
1.52375e-05
-0.389833
1.97406e-05
-0.353778
2.26706e-05
-0.321061
2.34614e-05
-0.291368
2.16988e-05
-0.264421
1.75218e-05
-0.239974
1.14221e-05
-0.217779
4.24163e-06
-0.197642
-2.9725e-06
-0.179367
-1.00696e-05
-0.473374
9.75058e-06
-0.429534
1.40617e-05
-0.389836
1.87449e-05
-0.353781
2.22064e-05
-0.321062
2.39621e-05
-0.291368
2.33771e-05
-0.26442
2.02001e-05
-0.239971
1.45884e-05
-0.217775
7.34792e-06
-0.197637
-6.39691e-07
-0.179361
-8.35359e-06
-0.162775
-1.57613e-05
-0.473376
8.32337e-06
-0.429537
1.2731e-05
-0.38984
1.75894e-05
-0.353783
2.15281e-05
-0.321064
2.4218e-05
-0.291369
2.48557e-05
-0.264419
2.28532e-05
-0.239969
1.80548e-05
-0.217771
1.10695e-05
-0.197633
2.85254e-06
-0.179356
-5.64961e-06
-0.16277
-1.36075e-05
-0.147719
-2.11212e-05
-0.473377
6.94869e-06
-0.42954
1.13744e-05
-0.389843
1.63658e-05
-0.353786
2.06384e-05
-0.321067
2.41161e-05
-0.291371
2.5939e-05
-0.26442
2.52392e-05
-0.239968
2.15529e-05
-0.217768
1.52101e-05
-0.197629
7.05551e-06
-0.179352
-1.86254e-06
-0.162765
-1.07126e-05
-0.147714
-1.88256e-05
-0.134056
-2.63641e-05
-0.473379
5.65003e-06
-0.429543
9.93834e-06
-0.389847
1.50506e-05
-0.35379
1.96214e-05
-0.32107
2.37693e-05
-0.291373
2.66804e-05
-0.264421
2.72981e-05
-0.239967
2.49104e-05
-0.217766
1.95138e-05
-0.197626
1.17573e-05
-0.179347
2.65032e-06
-0.16276
-6.75431e-06
-0.147709
-1.56811e-05
-0.134051
-2.37643e-05
-0.121653
-3.11063e-05
-0.47338
4.4969e-06
-0.429546
8.57665e-06
-0.389851
1.375e-05
-0.353793
1.8501e-05
-0.321073
2.311e-05
-0.291377
2.69495e-05
-0.264423
2.88437e-05
-0.239968
2.78967e-05
-0.217765
2.37462e-05
-0.197623
1.67359e-05
-0.179343
7.78008e-06
-0.162755
-2.00741e-06
-0.147704
-1.16424e-05
-0.134046
-2.05545e-05
-0.121649
-2.85406e-05
-0.110399
-3.56818e-05
-0.473381
3.51759e-06
-0.429549
7.27067e-06
-0.389855
1.24405e-05
-0.353797
1.73274e-05
-0.321077
2.22485e-05
-0.29138
2.68312e-05
-0.264426
2.98938e-05
-0.23997
3.04189e-05
-0.217765
2.77231e-05
-0.197621
2.17958e-05
-0.17934
1.33185e-05
-0.162751
3.3973e-06
-0.147699
-6.83737e-06
-0.134041
-1.65271e-05
-0.121644
-2.51676e-05
-0.110395
-3.29495e-05
-0.100187
-3.96383e-05
-0.473381
2.736e-06
-0.429552
6.1306e-06
-0.389858
1.11795e-05
-0.3538
1.60961e-05
-0.321081
2.11401e-05
-0.291384
2.62716e-05
-0.26443
3.03621e-05
-0.239972
3.23501e-05
-0.217766
3.12724e-05
-0.19762
2.67129e-05
-0.179337
1.90688e-05
-0.162747
9.3303e-06
-0.147694
-1.28091e-06
-0.134036
-1.17007e-05
-0.121639
-2.12316e-05
-0.110391
-2.95829e-05
-0.100183
-3.7129e-05
-0.0909189
-4.34371e-05
-0.473382
2.11352e-06
-0.429555
5.11053e-06
-0.389862
9.90659e-06
-0.353804
1.47977e-05
-0.321085
1.9874e-05
-0.291389
2.53756e-05
-0.264434
3.0324e-05
-0.239975
3.3655e-05
-0.217768
3.42251e-05
-0.19762
3.12802e-05
-0.179335
2.48362e-05
-0.162744
1.56454e-05
-0.14769
4.90948e-06
-0.134032
-6.13218e-06
-0.121635
-1.65387e-05
-0.110386
-2.57949e-05
-0.100179
-3.36447e-05
-0.0909151
-4.09294e-05
-0.0825089
-4.65579e-05
-0.473383
1.60144e-06
-0.429557
4.25739e-06
-0.389866
8.66117e-06
-0.353807
1.34159e-05
-0.321088
1.8419e-05
-0.291393
2.41433e-05
-0.264438
2.97648e-05
-0.239979
3.43058e-05
-0.217771
3.65237e-05
-0.197621
3.53545e-05
-0.179335
3.04154e-05
-0.162741
2.21414e-05
-0.147686
1.1613e-05
-0.134027
1.60264e-07
-0.12163
-1.10472e-05
-0.110381
-2.12304e-05
-0.100174
-3.00745e-05
-0.0909114
-3.74787e-05
-0.0825054
-4.44991e-05
-0.07487
-4.95685e-05
-0.473383
1.13372e-06
-0.429559
3.50898e-06
-0.389869
7.42522e-06
-0.353811
1.19629e-05
-0.321092
1.68584e-05
-0.291397
2.26792e-05
-0.264443
2.87961e-05
-0.239984
3.4338e-05
-0.217775
3.80713e-05
-0.197623
3.8735e-05
-0.179335
3.55671e-05
-0.162739
2.86058e-05
-0.147683
1.86862e-05
-0.134022
7.11147e-06
-0.121625
-4.77493e-06
-0.110377
-1.59263e-05
-0.10017
-2.57666e-05
-0.0909073
-3.41566e-05
-0.0825019
-4.09365e-05
-0.0748667
-4.77244e-05
-0.0679461
-5.18828e-05
-0.473384
6.81721e-07
-0.429561
2.88966e-06
-0.389872
6.28513e-06
-0.353814
1.04894e-05
-0.321095
1.52066e-05
-0.291401
2.1015e-05
-0.264448
2.74447e-05
-0.239989
3.37883e-05
-0.217779
3.88871e-05
-0.197627
4.13728e-05
-0.179336
4.01458e-05
-0.162738
3.48368e-05
-0.14768
2.59331e-05
-0.134018
1.45907e-05
-0.12162
2.24633e-06
-0.110372
-9.79512e-06
-0.100165
-2.06935e-05
-0.090903
-3.00632e-05
-0.0824982
-3.79264e-05
-0.0748636
-4.41746e-05
-0.0679431
-5.07407e-05
-0.0616556
-5.41658e-05
-0.473384
2.41007e-07
-0.429563
2.34912e-06
-0.389874
5.26127e-06
-0.353817
9.06968e-06
-0.321098
1.35626e-05
-0.291405
1.92555e-05
-0.264452
2.58297e-05
-0.239994
3.27403e-05
-0.217784
3.89753e-05
-0.197631
4.31523e-05
-0.179339
4.39459e-05
-0.162739
4.05687e-05
-0.147678
3.30973e-05
-0.134015
2.24327e-05
-0.121615
9.96817e-06
-0.110367
-2.82146e-06
-0.10016
-1.47864e-05
-0.0908984
-2.52976e-05
-0.0824941
-3.415e-05
-0.0748601
-4.14837e-05
-0.0679403
-4.70407e-05
-0.0616529
-5.34713e-05
-0.0559526
-5.57767e-05
-0.473385
-1.57955e-07
-0.429564
1.90689e-06
-0.389876
4.41243e-06
-0.353819
7.78161e-06
-0.321101
1.19696e-05
-0.291409
1.74483e-05
-0.264457
2.40036e-05
-0.24
3.12677e-05
-0.21779
3.84088e-05
-0.197636
4.41141e-05
-0.179343
4.68975e-05
-0.162741
4.56385e-05
-0.147678
3.99673e-05
-0.134012
3.04343e-05
-0.121611
1.82541e-05
-0.110362
4.96623e-06
-0.100155
-8.00459e-06
-0.0908936
-1.96861e-05
-0.0824897
-2.96914e-05
-0.0748563
-3.79565e-05
-0.067937
-4.47268e-05
-0.0616503
-4.97167e-05
-0.05595
-5.60295e-05
-0.0507767
-5.74206e-05
-0.473385
-4.87692e-07
-0.429566
1.52382e-06
-0.389878
3.70504e-06
-0.353822
6.66323e-06
-0.321104
1.05038e-05
-0.291413
1.56794e-05
-0.264462
2.20749e-05
-0.240005
2.94804e-05
-0.217796
3.72623e-05
-0.197642
4.42425e-05
-0.179347
4.89049e-05
-0.162743
4.98372e-05
-0.147678
4.62599e-05
-0.13401
3.82962e-05
-0.121608
2.68853e-05
-0.110357
1.34962e-05
-0.10015
-2.81633e-07
-0.0908884
-1.31657e-05
-0.082485
-2.44144e-05
-0.0748521
-3.38568e-05
-0.0679335
-4.15348e-05
-0.0616473
-4.77669e-05
-0.0559477
-5.20462e-05
-0.0507744
-5.83586e-05
-0.0460765
-5.84339e-05
-0.473385
-7.25306e-07
-0.429568
1.2154e-06
-0.38988
3.12246e-06
-0.353824
5.7186e-06
-0.321106
9.17455e-06
-0.291416
1.39827e-05
-0.264466
2.0097e-05
-0.240011
2.74639e-05
-0.217802
3.56469e-05
-0.197648
4.36457e-05
-0.179353
4.99866e-05
-0.162748
5.30935e-05
-0.14768
5.17933e-05
-0.13401
4.57842e-05
-0.121605
3.56335e-05
-0.110352
2.26187e-05
-0.100145
8.34406e-06
-0.090883
-5.65354e-06
-0.0824799
-1.82522e-05
-0.0748476
-2.89422e-05
-0.0679296
-3.7764e-05
-0.061644
-4.48239e-05
-0.055945
-5.05112e-05
-0.0507723
-5.42217e-05
-0.0460743
-6.05558e-05
-0.0418131
-5.95594e-05
-0.473385
-8.74114e-07
-0.42957
9.54728e-07
-0.389881
2.59807e-06
-0.353826
4.90643e-06
-0.321109
7.99905e-06
-0.29142
1.23999e-05
-0.26447
1.8151e-05
-0.240016
2.53211e-05
-0.217808
3.36666e-05
-0.197655
4.23901e-05
-0.17936
5.01569e-05
-0.162753
5.53103e-05
-0.147683
5.63812e-05
-0.134011
5.26103e-05
-0.121603
4.41706e-05
-0.110349
3.20456e-05
-0.10014
1.774e-05
-0.0908776
2.89911e-06
-0.0824745
-1.10287e-05
-0.0748427
-2.31617e-05
-0.0679253
-3.32244e-05
-0.0616404
-4.14193e-05
-0.0559419
-4.78899e-05
-0.0507698
-5.30734e-05
-0.0460725
-5.60884e-05
-0.0418111
-6.25816e-05
-0.0379441
-6.01296e-05
-0.473386
-9.47725e-07
-0.429571
7.54573e-07
-0.389882
2.1154e-06
-0.353827
4.18603e-06
-0.321111
6.94561e-06
-0.291423
1.09369e-05
-0.264474
1.62676e-05
-0.240021
2.31252e-05
-0.217814
3.14341e-05
-0.197662
4.06165e-05
-0.179367
4.95158e-05
-0.162759
5.6514e-05
-0.147688
5.99197e-05
-0.134013
5.85882e-05
-0.121603
5.22387e-05
-0.110346
4.15135e-05
-0.100135
2.77058e-05
-0.0908723
1.24437e-05
-0.082469
-2.66117e-06
-0.0748374
-1.63317e-05
-0.0679206
-2.78838e-05
-0.0616364
-3.72512e-05
-0.0559385
-4.48037e-05
-0.050767
-5.06811e-05
-0.0460702
-5.53683e-05
-0.0418094
-5.7843e-05
-0.0379422
-6.45135e-05
-0.0344323
-6.08635e-05
-0.473386
-9.71892e-07
-0.429573
5.92611e-07
-0.389884
1.64419e-06
-0.353829
3.51869e-06
-0.321113
6.00299e-06
-0.291425
9.59905e-06
-0.264478
1.44953e-05
-0.240025
2.09475e-05
-0.21782
2.90491e-05
-0.197669
3.84248e-05
-0.179374
4.81534e-05
-0.162767
5.67258e-05
-0.147694
6.23537e-05
-0.134017
6.35431e-05
-0.121604
5.95744e-05
-0.110345
5.06787e-05
-0.100132
3.79007e-05
-0.0908673
2.27361e-05
-0.0824634
6.83917e-06
-0.0748318
-8.27266e-06
-0.0679155
-2.14774e-05
-0.0616319
-3.23424e-05
-0.0559348
-4.10082e-05
-0.0507639
-4.79469e-05
-0.0460676
-5.32694e-05
-0.0418073
-5.75073e-05
-0.0379407
-5.93322e-05
-0.0344305
-6.63115e-05
-0.0312454
-6.11102e-05
-0.473386
-9.69998e-07
-0.429574
4.72485e-07
-0.389884
1.20167e-06
-0.35383
2.89174e-06
-0.321114
5.14836e-06
-0.291428
8.37846e-06
-0.264481
1.28387e-05
-0.24003
1.88395e-05
-0.217826
2.65975e-05
-0.197676
3.59545e-05
-0.179382
4.62095e-05
-0.162774
5.60514e-05
-0.147701
6.36818e-05
-0.134022
6.73675e-05
-0.121606
6.59652e-05
-0.110344
5.92839e-05
-0.100129
4.80257e-05
-0.090863
3.35163e-05
-0.082458
1.73363e-05
-0.074826
1.10048e-06
-0.0679099
-1.37948e-05
-0.0616269
-2.64306e-05
-0.0559306
-3.65617e-05
-0.0507604
-4.45023e-05
-0.0460647
-5.08302e-05
-0.041805
-5.56057e-05
-0.0379388
-5.94111e-05
-0.0344292
-6.07395e-05
-0.0312437
-6.80372e-05
-0.0283538
-6.15703e-05
-0.473387
-9.64451e-07
-0.429576
3.69678e-07
-0.389885
7.85123e-07
-0.353831
2.30475e-06
-0.321116
4.37961e-06
-0.29143
7.27728e-06
-0.264484
1.13175e-05
-0.240034
1.68358e-05
-0.217831
2.41597e-05
-0.197682
3.32966e-05
-0.17939
4.3806e-05
-0.162783
5.45863e-05
-0.147709
6.39535e-05
-0.134028
7.00197e-05
-0.12161
7.12786e-05
-0.110346
6.70778e-05
-0.100128
5.77577e-05
-0.0908593
4.44023e-05
-0.082453
2.84967e-05
-0.0748203
1.16197e-05
-0.0679041
-4.70303e-06
-0.0616215
-1.92097e-05
-0.0559259
-3.11423e-05
-0.0507564
-4.04953e-05
-0.0460615
-4.77394e-05
-0.0418023
-5.34937e-05
-0.0379367
-5.77617e-05
-0.0344274
-6.11803e-05
-0.0312425
-6.19147e-05
-0.0283522
-6.96547e-05
-0.0257295
-6.16372e-05
-0.473387
-9.6952e-07
-0.429577
2.81973e-07
-0.389885
4.16658e-07
-0.353832
1.77057e-06
-0.321117
3.6928e-06
-0.291432
6.28706e-06
-0.264487
9.92968e-06
-0.240037
1.49594e-05
-0.217836
2.17847e-05
-0.197689
3.05703e-05
-0.179398
4.10766e-05
-0.162791
5.24818e-05
-0.147717
6.32551e-05
-0.134036
7.14907e-05
-0.121616
7.53906e-05
-0.110348
7.38705e-05
-0.100127
6.68322e-05
-0.0908567
5.50953e-05
-0.0824485
3.9993e-05
-0.0748149
2.30466e-05
-0.0678982
5.76139e-06
-0.0616158
-1.0433e-05
-0.0559207
-2.44075e-05
-0.050752
-3.56122e-05
-0.0460578
-4.41859e-05
-0.0417993
-5.07263e-05
-0.0379343
-5.59169e-05
-0.0344255
-5.96906e-05
-0.0312409
-6.27387e-05
-0.0283512
-6.30323e-05
-0.0257279
-7.12213e-05
-0.0233484
-6.19474e-05
-0.473388
-9.94131e-07
-0.429578
1.89934e-07
-0.389885
9.56947e-08
-0.353833
1.30007e-06
-0.321118
3.09289e-06
-0.291433
5.4092e-06
-0.264489
8.67607e-06
-0.240041
1.32283e-05
-0.217841
1.95189e-05
-0.197695
2.78356e-05
-0.179405
3.81458e-05
-0.1628
4.98562e-05
-0.147727
6.17063e-05
-0.134044
7.18345e-05
-0.121622
7.82744e-05
-0.110352
7.95271e-05
-0.100129
7.50479e-05
-0.0908551
6.52986e-05
-0.0824449
5.14538e-05
-0.0748099
3.49613e-05
-0.0678925
1.72846e-05
-0.0616099
-1.67977e-07
-0.055915
-1.60681e-05
-0.050747
-2.94187e-05
-0.0460536
-3.98163e-05
-0.0417959
-4.7601e-05
-0.0379315
-5.34846e-05
-0.0344233
-5.8148e-05
-0.0312392
-6.14598e-05
-0.0283497
-6.41803e-05
-0.025727
-6.39562e-05
-0.0233469
-7.27057e-05
-0.0211866
-6.19345e-05
-0.473388
-1.03778e-06
-0.429579
9.44262e-08
-0.389884
-1.62966e-07
-0.353834
9.04686e-07
-0.32112
2.57719e-06
-0.291435
4.63604e-06
-0.264491
7.55e-06
-0.240044
1.1642e-05
-0.217845
1.73928e-05
-0.197701
2.51707e-05
-0.179413
3.51128e-05
-0.162809
4.68764e-05
-0.147736
5.94376e-05
-0.134054
7.11353e-05
-0.121631
7.99036e-05
-0.110358
8.39404e-05
-0.100131
8.22177e-05
-0.0908549
7.47897e-05
-0.0824422
6.25899e-05
-0.0748054
4.70199e-05
-0.067887
2.95038e-05
-0.061604
1.1389e-05
-0.0559092
-6.02617e-06
-0.0507415
-2.15003e-05
-0.0460489
-3.41499e-05
-0.041792
-4.37722e-05
-0.0379283
-5.07929e-05
-0.0344207
-5.60173e-05
-0.0312372
-6.01609e-05
-0.0283482
-6.30265e-05
-0.0257258
-6.54399e-05
-0.0233461
-6.48452e-05
-0.0211851
-7.41557e-05
-0.0192257
-6.21459e-05
-0.473388
-1.09792e-06
-0.42958
-1.56627e-08
-0.389884
-3.65496e-07
-0.353834
5.87822e-07
-0.321121
2.14498e-06
-0.291436
3.96276e-06
-0.264493
6.54726e-06
-0.240046
1.0205e-05
-0.217849
1.54196e-05
-0.197706
2.26191e-05
-0.179419
3.20682e-05
-0.162818
4.36447e-05
-0.147746
5.66128e-05
-0.134064
6.9506e-05
-0.12164
8.03461e-05
-0.110365
8.70652e-05
-0.100136
8.82214e-05
-0.0908561
8.33836e-05
-0.0824406
7.31801e-05
-0.0748017
5.88956e-05
-0.067882
4.19826e-05
-0.0615982
2.37605e-05
-0.0559032
5.43602e-06
-0.0507358
-1.17909e-05
-0.0460436
-2.67475e-05
-0.0417875
-3.86706e-05
-0.0379246
-4.74752e-05
-0.0344178
-5.37393e-05
-0.0312348
-5.8355e-05
-0.0283463
-6.20073e-05
-0.0257243
-6.44537e-05
-0.023345
-6.66039e-05
-0.0211844
-6.5582e-05
-0.0192243
-7.55243e-05
-0.0174457
-6.20469e-05
-0.473388
-1.16869e-06
-0.429581
-1.36781e-07
-0.389883
-5.11334e-07
-0.353835
3.48375e-07
-0.321122
1.78679e-06
-0.291437
3.3798e-06
-0.264495
5.65725e-06
-0.240049
8.91097e-06
-0.217852
1.36109e-05
-0.197711
2.02145e-05
-0.179426
2.9091e-05
-0.162826
4.02952e-05
-0.147756
5.33619e-05
-0.134074
6.71067e-05
-0.12165
7.96548e-05
-0.110374
8.88865e-05
-0.100141
9.29427e-05
-0.0908588
9.09231e-05
-0.0824402
8.30283e-05
-0.0747989
7.03699e-05
-0.0678775
5.44059e-05
-0.0615928
3.65346e-05
-0.0558974
1.79047e-05
-0.0507299
-4.30583e-07
-0.0460381
-1.73437e-05
-0.0417825
-3.1724e-05
-0.0379204
-4.2894e-05
-0.0344143
-5.09495e-05
-0.0312321
-5.64945e-05
-0.0283442
-6.04934e-05
-0.0257227
-6.36589e-05
-0.0233437
-6.5709e-05
-0.0211834
-6.76236e-05
-0.0192236
-6.63074e-05
-0.0174444
-7.68209e-05
-0.0158308
-6.20956e-05
-0.473388
-1.24843e-06
-0.429582
-2.72932e-07
-0.389883
-6.14306e-07
-0.353836
1.75357e-07
-0.321123
1.49436e-06
-0.291438
2.87791e-06
-0.264496
4.87412e-06
-0.240051
7.75471e-06
-0.217855
1.19678e-05
-0.197715
1.79774e-05
-0.179432
2.62248e-05
-0.162834
3.69216e-05
-0.147765
4.98322e-05
-0.134085
6.40691e-05
-0.121661
7.79898e-05
-0.110383
8.94365e-05
-0.100149
9.63408e-05
-0.0908631
9.72742e-05
-0.0824413
9.19813e-05
-0.0747972
8.12634e-05
-0.0678737
6.65522e-05
-0.0615877
4.93341e-05
-0.0558917
3.08426e-05
-0.050724
1.20269e-05
-0.0460323
-6.18021e-06
-0.0417771
-2.27089e-05
-0.0379156
-3.64822e-05
-0.0344103
-4.69195e-05
-0.0312289
-5.42028e-05
-0.0283417
-5.9039e-05
-0.0257207
-6.24697e-05
-0.0233422
-6.51746e-05
-0.0211823
-6.68587e-05
-0.0192227
-6.85826e-05
-0.0174438
-6.69038e-05
-0.0158296
-7.79582e-05
-0.014365
-6.19301e-05
-0.473388
-1.33263e-06
-0.429583
-4.15164e-07
-0.389882
-6.79323e-07
-0.353836
5.68592e-08
-0.321124
1.25347e-06
-0.291439
2.44743e-06
-0.264498
4.1858e-06
-0.240053
6.72778e-06
-0.217858
1.04864e-05
-0.197719
1.5922e-05
-0.179437
2.35169e-05
-0.162841
3.3602e-05
-0.147774
4.61564e-05
-0.134095
6.05599e-05
-0.121672
7.54526e-05
-0.110394
8.88133e-05
-0.100158
9.83658e-05
-0.0908691
0.000102334
-0.0824439
9.98837e-05
-0.0747966
9.14351e-05
-0.0678707
7.82627e-05
-0.0615831
6.19508e-05
-0.0558862
4.38775e-05
-0.0507182
2.50628e-05
-0.0460265
6.26299e-06
-0.0417716
-1.17e-05
-0.0379105
-2.7784e-05
-0.0344058
-4.09476e-05
-0.0312251
-5.06585e-05
-0.0283386
-5.72566e-05
-0.0257184
-6.14229e-05
-0.0233404
-6.42762e-05
-0.0211809
-6.6532e-05
-0.0192217
-6.78894e-05
-0.017443
-6.94379e-05
-0.0158291
-6.74382e-05
-0.014364
-7.89691e-05
-0.0130346
-6.2086e-05
-0.473388
-1.41666e-06
-0.429584
-5.57286e-07
-0.389883
-7.1228e-07
-0.353837
-2.11473e-08
-0.321125
1.0525e-06
-0.29144
2.0788e-06
-0.264499
3.58665e-06
-0.240054
5.81938e-06
-0.21786
9.16139e-06
-0.197723
1.4048e-05
-0.179443
2.09888e-05
-0.162848
3.03984e-05
-0.147783
4.24293e-05
-0.134106
5.6734e-05
-0.121684
7.22284e-05
-0.110406
8.71088e-05
-0.100168
9.90898e-05
-0.0908768
0.000106016
-0.0824482
0.00010661
-0.0747975
0.000100733
-0.0678687
8.94168e-05
-0.0615791
7.42402e-05
-0.0558811
5.67793e-05
-0.0507126
3.82117e-05
-0.0460208
1.93094e-05
-0.041766
6.53522e-07
-0.0379052
-1.70037e-05
-0.034401
-3.26346e-05
-0.0312209
-4.51962e-05
-0.0283351
-5.4227e-05
-0.0257155
-6.01211e-05
-0.0233382
-6.36289e-05
-0.0211792
-6.5955e-05
-0.0192204
-6.77989e-05
-0.017442
-6.88619e-05
-0.0158284
-7.02204e-05
-0.0143637
-6.77783e-05
-0.0130337
-7.99213e-05
-0.0118277
-6.23212e-05
-0.473388
-1.48817e-06
-0.429584
-6.8502e-07
-0.389882
-7.11673e-07
-0.353838
-6.47398e-08
-0.321126
8.80464e-07
-0.291441
1.76185e-06
-0.2645
3.06637e-06
-0.240056
5.02137e-06
-0.217863
7.97961e-06
-0.197726
1.2357e-05
-0.179447
1.86567e-05
-0.162854
2.73597e-05
-0.147792
3.87502e-05
-0.134116
5.27139e-05
-0.121696
6.84753e-05
-0.110418
8.44763e-05
-0.10018
9.85349e-05
-0.090886
0.000108317
-0.0824542
0.000112019
-0.0747999
0.000109022
-0.0678679
9.98926e-05
-0.0615758
8.61301e-05
-0.0558763
6.94404e-05
-0.0507071
5.12566e-05
-0.0460151
3.24895e-05
-0.0417604
1.36922e-05
-0.0378999
-4.70174e-06
-0.034396
-2.20004e-05
-0.0312163
-3.71599e-05
-0.0283311
-4.91542e-05
-0.0257122
-5.75261e-05
-0.0233355
-6.28105e-05
-0.0211772
-6.57016e-05
-0.0192189
-6.75022e-05
-0.0174408
-6.89669e-05
-0.0158275
-6.97507e-05
-0.014363
-7.08404e-05
-0.0130335
-6.80383e-05
-0.0118266
-8.10412e-05
-0.0107332
-6.28399e-05
-0.473387
-1.53523e-06
-0.429585
-7.88106e-07
-0.389883
-6.8311e-07
-0.353838
-8.0759e-08
-0.321127
7.31569e-07
-0.291441
1.48909e-06
-0.2645
2.61688e-06
-0.240057
4.32385e-06
-0.217864
6.93398e-06
-0.197729
1.08349e-05
-0.179451
1.65263e-05
-0.16286
2.45113e-05
-0.147799
3.51854e-05
-0.134126
4.86275e-05
-0.121707
6.43451e-05
-0.110431
8.10905e-05
-0.100192
9.68418e-05
-0.0908967
0.000109215
-0.0824619
0.000116059
-0.074804
0.00011613
-0.0678684
0.000109558
-0.0615735
9.752e-05
-0.0558719
8.18056e-05
-0.0507017
6.40825e-05
-0.0460094
4.55422e-05
-0.0417547
2.68256e-05
-0.0378945
8.27391e-06
-0.0343909
-9.80436e-06
-0.0312116
-2.67343e-05
-0.0283268
-4.14539e-05
-0.0257084
-5.29059e-05
-0.0233324
-6.06779e-05
-0.0211747
-6.53325e-05
-0.0192169
-6.76256e-05
-0.0174394
-6.89733e-05
-0.0158264
-7.0099e-05
-0.0143623
-7.0539e-05
-0.013033
-7.1314e-05
-0.0118263
-6.83342e-05
-0.0107318
-8.23461e-05
-0.00974016
-6.30356e-05
-0.473387
-1.54858e-06
-0.429586
-8.56172e-07
-0.389882
-6.29927e-07
-0.353839
-7.49535e-08
-0.321128
6.01634e-07
-0.291442
1.25322e-06
-0.264501
2.22931e-06
-0.240058
3.71605e-06
-0.217866
6.01245e-06
-0.197731
9.47827e-06
-0.179455
1.45911e-05
-0.162865
2.18776e-05
-0.147807
3.17878e-05
-0.134136
4.45721e-05
-0.121719
5.99868e-05
-0.110444
7.70972e-05
-0.100205
9.415e-05
-0.0909086
0.000108787
-0.0824714
0.000118635
-0.0748099
0.000121962
-0.0678705
0.00011824
-0.0615722
0.00010832
-0.0558683
9.38432e-05
-0.0506966
7.6706e-05
-0.0460037
5.8396e-05
-0.041749
3.98101e-05
-0.037889
2.13239e-05
-0.0343857
3.12545e-06
-0.0312068
-1.45765e-05
-0.0283224
-3.1122e-05
-0.0257045
-4.54052e-05
-0.0233289
-5.63707e-05
-0.0211717
-6.35715e-05
-0.0192146
-6.76934e-05
-0.0174376
-6.94493e-05
-0.015825
-7.03768e-05
-0.0143612
-7.11365e-05
-0.0130324
-7.11435e-05
-0.0118259
-7.17363e-05
-0.0107313
-6.89028e-05
-0.00973882
-8.36786e-05
-0.00883776
-6.16643e-05
-0.473386
-1.51981e-06
-0.429587
-8.868e-07
-0.389883
-5.69332e-07
-0.353839
-5.65325e-08
-0.321128
4.88543e-07
-0.291442
1.04994e-06
-0.264502
1.89534e-06
-0.240059
3.18927e-06
-0.217868
5.20361e-06
-0.197733
8.27325e-06
-0.179458
1.28493e-05
-0.16287
1.94546e-05
-0.147813
2.85959e-05
-0.134144
4.06251e-05
-0.121729
5.55346e-05
-0.110456
7.26799e-05
-0.100218
9.0612e-05
-0.0909216
0.000107148
-0.0824823
0.000119768
-0.0748176
0.000126356
-0.0678744
0.000125806
-0.0615723
0.000118361
-0.0558654
0.00010549
-0.0506919
8.91134e-05
-0.045998
7.10617e-05
-0.0417431
5.25405e-05
-0.0378833
3.41499e-05
-0.0343805
1.60453e-05
-0.0312019
-1.72905e-06
-0.0283179
-1.90453e-05
-0.0257004
-3.52281e-05
-0.0233252
-4.91287e-05
-0.0211685
-5.96365e-05
-0.0192119
-6.63254e-05
-0.0174354
-6.99009e-05
-0.0158232
-7.1176e-05
-0.0143599
-7.17335e-05
-0.0130315
-7.20204e-05
-0.0118255
-7.16009e-05
-0.0107307
-7.2355e-05
-0.00973809
-6.96943e-05
-0.00883773
-8.36857e-05
-0.00801098
-5.46386e-05
-0.473386
-1.45001e-06
-0.429587
-8.77876e-07
-0.389883
-5.07675e-07
-0.35384
-3.88693e-08
-0.321129
3.8821e-07
-0.291443
8.74947e-07
-0.264502
1.60813e-06
-0.24006
2.73223e-06
-0.217869
4.49711e-06
-0.197735
7.20866e-06
-0.179461
1.12908e-05
-0.162875
1.72525e-05
-0.14782
2.5621e-05
-0.134153
3.68515e-05
-0.12174
5.10897e-05
-0.110469
6.7989e-05
-0.100232
8.64082e-05
-0.0909354
0.00010441
-0.0824947
0.000119513
-0.0748271
0.000129269
-0.06788
0.000132053
-0.061574
0.000127515
-0.0558637
0.000116627
-0.0506877
0.000101319
-0.0459925
8.36108e-05
-0.0417372
6.51114e-05
-0.0378775
4.66968e-05
-0.034375
2.8689e-05
-0.0311969
1.1053e-05
-0.0283134
-6.24215e-06
-0.0256962
-2.3148e-05
-0.0233214
-3.89695e-05
-0.0211651
-5.25027e-05
-0.0192089
-6.26179e-05
-0.0174328
-6.88229e-05
-0.0158212
-7.19748e-05
-0.0143582
-7.28518e-05
-0.0130303
-7.29427e-05
-0.0118248
-7.26542e-05
-0.0107302
-7.21285e-05
-0.00973716
-7.3281e-05
-0.00883687
-7.06081e-05
-0.00801778
-7.6884e-05
-0.00724247
-4.43382e-05
-0.473386
-1.34519e-06
-0.429588
-8.36725e-07
-0.389884
-4.6067e-07
-0.35384
-2.88552e-08
-0.321129
2.9778e-07
-0.291443
7.22772e-07
-0.264503
1.36236e-06
-0.24006
2.33785e-06
-0.21787
3.88001e-06
-0.197737
6.27216e-06
-0.179464
9.90251e-06
-0.162879
1.5262e-05
-0.147825
2.28831e-05
-0.13416
3.32773e-05
-0.12175
4.67519e-05
-0.110481
6.31648e-05
-0.100246
8.17185e-05
-0.0909498
0.00010076
-0.0825082
0.000117942
-0.0748383
0.000130683
-0.0678876
0.00013686
-0.0615775
0.00013553
-0.0558633
0.00012713
-0.0506843
0.000113243
-0.0459873
9.60805e-05
-0.0417311
7.75776e-05
-0.0378714
5.9021e-05
-0.0343693
4.09486e-05
-0.0311917
2.34516e-05
-0.0283087
6.36743e-06
-0.0256921
-1.04202e-05
-0.0233177
-2.69287e-05
-0.0211617
-4.24293e-05
-0.0192057
-5.5657e-05
-0.0174301
-6.53969e-05
-0.0158188
-7.11887e-05
-0.0143562
-7.39452e-05
-0.0130288
-7.44033e-05
-0.0118239
-7.38802e-05
-0.0107297
-7.31802e-05
-0.00973633
-7.29721e-05
-0.00883583
-7.43114e-05
-0.00801927
-6.91711e-05
-0.00725664
-6.26898e-05
-0.00653691
-3.34764e-05
-0.473386
-1.21213e-06
-0.429588
-7.70589e-07
-0.389884
-4.33308e-07
-0.353841
-3.62311e-08
-0.321129
2.15391e-07
-0.291443
5.89954e-07
-0.264503
1.14967e-06
-0.240061
1.99901e-06
-0.217871
3.34383e-06
-0.197739
5.44901e-06
-0.179467
8.67369e-06
-0.162882
1.34747e-05
-0.14783
2.0383e-05
-0.134167
2.9943e-05
-0.121759
4.25645e-05
-0.110492
5.83328e-05
-0.100259
7.66993e-05
-0.0909644
9.63699e-05
-0.0825227
0.000115207
-0.074851
0.000130613
-0.0678971
0.00014015
-0.0615829
0.000142248
-0.0558645
0.000136752
-0.050682
0.000124817
-0.0459825
0.000108486
-0.0417251
9.00665e-05
-0.0378651
7.12625e-05
-0.0343632
5.29746e-05
-0.0311862
3.54224e-05
-0.0283038
1.8526e-05
-0.0256877
2.02296e-06
-0.0233139
-1.42288e-05
-0.0211582
-3.03375e-05
-0.0192026
-4.55285e-05
-0.0174273
-5.84588e-05
-0.0158163
-6.7886e-05
-0.0143541
-7.33401e-05
-0.0130269
-7.58108e-05
-0.0118226
-7.5697e-05
-0.010729
-7.45169e-05
-0.0097356
-7.38994e-05
-0.00883467
-7.41613e-05
-0.0080192
-7.43925e-05
-0.00726578
-6.00578e-05
-0.0065527
-4.6911e-05
-0.0058941
-2.34332e-05
-0.473385
-1.07353e-06
-0.429589
-6.89264e-07
-0.389885
-4.27492e-07
-0.353841
-6.30036e-08
-0.321129
1.39474e-07
-0.291444
4.72782e-07
-0.264504
9.66559e-07
-0.240062
1.70563e-06
-0.217872
2.88084e-06
-0.19774
4.7289e-06
-0.179469
7.58544e-06
-0.162885
1.18792e-05
-0.147835
1.81149e-05
-0.134174
2.68596e-05
-0.121768
3.85966e-05
-0.110503
5.35676e-05
-0.100273
7.15172e-05
-0.0909791
9.1422e-05
-0.0825378
0.000111474
-0.0748649
0.00012916
-0.0679083
0.000141852
-0.0615903
0.000147504
-0.0558676
0.000145274
-0.0506811
0.000135791
-0.0459785
0.000120807
-0.0417193
0.000102644
-0.0378585
8.35352e-05
-0.0343568
6.4841e-05
-0.0311803
4.70537e-05
-0.0282985
3.01314e-05
-0.0256831
1.38887e-05
-0.0233099
-1.98612e-06
-0.0211548
-1.76958e-05
-0.0191995
-3.34321e-05
-0.0174244
-4.836e-05
-0.0158138
-6.10416e-05
-0.0143518
-7.01932e-05
-0.0130249
-7.54251e-05
-0.0118209
-7.74487e-05
-0.0107282
-7.65606e-05
-0.009735
-7.51171e-05
-0.00883354
-7.50127e-05
-0.00801806
-7.53022e-05
-0.00727224
-6.79218e-05
-0.00656508
-4.77113e-05
-0.00590921
-3.17863e-05
-0.00531182
-1.47714e-05
-0.473385
-9.40291e-07
-0.429589
-6.0566e-07
-0.389884
-4.42981e-07
-0.353841
-1.06584e-07
-0.32113
7.0226e-08
-0.291444
3.68736e-07
-0.264504
8.06501e-07
-0.240062
1.45337e-06
-0.217873
2.47794e-06
-0.197741
4.10358e-06
-0.179471
6.6278e-06
-0.162888
1.04563e-05
-0.147839
1.60732e-05
-0.13418
2.40318e-05
-0.121776
3.48737e-05
-0.110514
4.89646e-05
-0.100285
6.6266e-05
-0.0909937
8.6102e-05
-0.0825533
0.00010692
-0.0748799
0.000126459
-0.0679212
0.000142013
-0.0615996
0.000151166
-0.0558726
0.000152492
-0.0506817
0.000145943
-0.0459756
0.00013285
-0.0417139
0.000115396
-0.0378519
9.60172e-05
-0.03435
7.67379e-05
-0.0311739
5.84985e-05
-0.0282929
4.13854e-05
-0.0256781
2.51611e-05
-0.0233056
9.60316e-06
-0.0211511
-5.63918e-06
-0.0191964
-2.07969e-05
-0.0174217
-3.61758e-05
-0.0158113
-5.08357e-05
-0.0143495
-6.32816e-05
-0.0130228
-7.23026e-05
-0.0118191
-7.73018e-05
-0.010727
-7.86449e-05
-0.00973444
-7.71258e-05
-0.00883262
-7.60435e-05
-0.00801669
-7.63786e-05
-0.00727482
-7.27448e-05
-0.00657747
-5.55424e-05
-0.0059217
-3.52371e-05
-0.00532501
-1.86091e-05
-0.00478634
-7.88138e-06
-0.473385
-8.22444e-07
-0.42959
-5.30184e-07
-0.389885
-4.66403e-07
-0.353842
-1.65393e-07
-0.32113
8.21817e-09
-0.291444
2.76726e-07
-0.264504
6.66147e-07
-0.240063
1.23366e-06
-0.217873
2.131e-06
-0.197742
3.55599e-06
-0.179472
5.79056e-06
-0.162891
9.19448e-06
-0.147843
1.42362e-05
-0.134185
2.14604e-05
-0.121783
3.14169e-05
-0.110523
4.4577e-05
-0.100297
6.10839e-05
-0.091008
8.05346e-05
-0.0825689
0.000101752
-0.0748957
0.000122668
-0.0679355
0.000140709
-0.0616108
0.000153195
-0.0558796
0.000158183
-0.0506842
0.000154999
-0.045974
0.000144368
-0.0417092
0.00012818
-0.0378454
0.000108882
-0.0343429
8.88733e-05
-0.0311671
6.98625e-05
-0.0282867
5.23205e-05
-0.0256727
3.59754e-05
-0.0233009
2.04785e-05
-0.0211472
5.62523e-06
-0.0191931
-8.95843e-06
-0.0174189
-2.35826e-05
-0.0158089
-3.86265e-05
-0.0143473
-5.30513e-05
-0.0130207
-6.538e-05
-0.0118171
-7.43361e-05
-0.0107254
-7.88629e-05
-0.00973376
-7.93115e-05
-0.00883197
-7.77713e-05
-0.00801538
-7.7341e-05
-0.00727481
-7.63774e-05
-0.00658796
-6.2247e-05
-0.00593491
-4.23116e-05
-0.00533634
-2.39351e-05
-0.00479709
-7.8484e-06
-0.00431332
-2.61353e-06
-0.473385
-7.26444e-07
-0.42959
-4.68722e-07
-0.389884
-4.91125e-07
-0.353842
-2.24714e-07
-0.32113
-4.67552e-08
-0.291444
1.95606e-07
-0.264505
5.42576e-07
-0.240063
1.04177e-06
-0.217874
1.82844e-06
-0.197743
3.08261e-06
-0.179474
5.05319e-06
-0.162893
8.08467e-06
-0.147846
1.25953e-05
-0.13419
1.91256e-05
-0.12179
2.82373e-05
-0.110532
4.04421e-05
-0.100309
5.60469e-05
-0.0910218
7.48901e-05
-0.0825845
9.61074e-05
-0.0749119
0.000117997
-0.0679508
0.000138067
-0.0616237
0.000153612
-0.0558886
0.000162244
-0.0506887
0.000162687
-0.0459741
0.000155071
-0.0417056
0.000140785
-0.0378393
0.000122099
-0.0343356
0.00010157
-0.0311597
8.14616e-05
-0.0282799
6.30899e-05
-0.0256668
4.64364e-05
-0.0232958
3.09137e-05
-0.0211428
1.61481e-05
-0.0191895
2.00318e-06
-0.0174159
-1.19401e-05
-0.0158064
-2.60315e-05
-0.0143452
-4.07394e-05
-0.0130188
-5.49663e-05
-0.0118151
-6.73122e-05
-0.0107237
-7.61096e-05
-0.00973286
-7.97872e-05
-0.00883152
-7.975e-05
-0.00801434
-7.88176e-05
-0.0072737
-7.84518e-05
-0.00659537
-6.89663e-05
-0.00594783
-4.93517e-05
-0.00534868
-2.99879e-05
-0.00480665
-1.43785e-05
-0.00432158
3.99538e-07
-0.00388801
1.09369e-06
-0.473385
-6.63548e-07
-0.429591
-4.25924e-07
-0.389885
-5.13868e-07
-0.353842
-2.78995e-07
-0.32113
-9.17104e-08
-0.291444
1.2461e-07
-0.264505
4.33393e-07
-0.240063
8.73674e-07
-0.217875
1.56487e-06
-0.197744
2.66811e-06
-0.179475
4.41221e-06
-0.162895
7.10031e-06
-0.147849
1.11414e-05
-0.134195
1.70221e-05
-0.121796
2.53206e-05
-0.110541
3.65918e-05
-0.10032
5.12226e-05
-0.091035
6.92813e-05
-0.0825998
9.01959e-05
-0.0749284
0.000112586
-0.0679671