/*--------------------------------*- C++ -*----------------------------------*\
  =========                 |
  \\      /  F ield         | OpenFOAM: The Open Source CFD Toolbox
   \\    /   O peration     | Website:  https://openfoam.org
    \\  /    A nd           | Version:  dev
     \\/     M anipulation  |
\*---------------------------------------------------------------------------*/
FoamFile
{
    version     2.0;
    format      ascii;
    class       volVectorField;
    location    "275";
    object      U;
}
// * * * * * * * * * * * * * * * * * * * * * * * * * * * * * * * * * * * * * //

dimensions      [0 1 -1 0 0 0 0];

internalField   nonuniform List<vector> 
29380
(
(51.0585 0.00567401 0)
(51.0591 0.00551838 0)
(51.0563 0.0017588 0)
(51.0594 0.00542105 0)
(51.0561 0.00182023 0)
(51.0623 0.00440756 0)
(51.0597 0.00531175 0)
(51.056 0.00187991 0)
(51.0622 0.00430856 0)
(51.0665 0.00228513 0)
(51.06 0.00519325 0)
(51.056 0.00198072 0)
(51.0622 0.00434137 0)
(51.0661 0.00239717 0)
(51.0708 0.00317126 0)
(51.0602 0.00506299 0)
(51.0562 0.00209754 0)
(51.0622 0.00440833 0)
(51.0659 0.00265681 0)
(51.0704 0.00318886 0)
(51.0757 0.00208401 0)
(51.0605 0.00490539 0)
(51.0563 0.00222979 0)
(51.0624 0.00449944 0)
(51.0658 0.00302498 0)
(51.0702 0.00339032 0)
(51.0749 0.00224808 0)
(51.0792 0.00193164 0)
(51.0608 0.00470669 0)
(51.0565 0.00237436 0)
(51.0626 0.00458673 0)
(51.0658 0.00344038 0)
(51.07 0.00370294 0)
(51.0745 0.00255034 0)
(51.0782 0.00201958 0)
(51.0833 0.00115183 0)
(51.061 0.00445061 0)
(51.0568 0.00252032 0)
(51.063 0.00466177 0)
(51.0659 0.00386263 0)
(51.0698 0.00408538 0)
(51.074 0.00300063 0)
(51.0776 0.00228832 0)
(51.0821 0.00130447 0)
(51.0864 0.00053285 0)
(51.0613 0.00413766 0)
(51.0571 0.00265677 0)
(51.0634 0.00471649 0)
(51.0661 0.00425482 0)
(51.0698 0.00449753 0)
(51.0737 0.00353958 0)
(51.0769 0.00273616 0)
(51.0813 0.00162279 0)
(51.085 0.000658532 0)
(51.0898 -0.000149883 0)
(51.0615 0.00377231 0)
(51.0574 0.00276358 0)
(51.0638 0.00475238 0)
(51.0664 0.00460539 0)
(51.0698 0.00490921 0)
(51.0734 0.00413833 0)
(51.0764 0.00331761 0)
(51.0804 0.00215347 0)
(51.084 0.000967774 0)
(51.0881 1.32269e-07 0)
(51.0925 -0.000930267 0)
(51.0618 0.00337011 0)
(51.0577 0.00282613 0)
(51.0643 0.00475941 0)
(51.0667 0.00490334 0)
(51.07 0.00530137 0)
(51.0733 0.00477196 0)
(51.076 0.00400768 0)
(51.0797 0.00284563 0)
(51.083 0.00150622 0)
(51.087 0.000320985 0)
(51.0906 -0.000799898 0)
(51.095 -0.00156857 0)
(51.062 0.0029385 0)
(51.0581 0.00282435 0)
(51.0647 0.004729 0)
(51.0671 0.00515153 0)
(51.0703 0.0056648 0)
(51.0734 0.0054196 0)
(51.0758 0.00477529 0)
(51.0792 0.00368268 0)
(51.0821 0.0022357 0)
(51.0857 0.000884129 0)
(51.0893 -0.000495913 0)
(51.093 -0.00144147 0)
(51.0973 -0.00234526 0)
(51.0622 0.00248835 0)
(51.0585 0.00275285 0)
(51.0652 0.00464595 0)
(51.0675 0.00534602 0)
(51.0706 0.00599085 0)
(51.0737 0.00606302 0)
(51.0758 0.00559357 0)
(51.0788 0.00463555 0)
(51.0813 0.00314655 0)
(51.0846 0.00165664 0)
(51.0879 5.18193e-05 0)
(51.0916 -0.00115439 0)
(51.0951 -0.0022423 0)
(51.0993 -0.00293733 0)
(51.0624 0.00202592 0)
(51.0589 0.00261011 0)
(51.0657 0.00450741 0)
(51.068 0.00549586 0)
(51.0711 0.00627873 0)
(51.074 0.00668168 0)
(51.076 0.00643157 0)
(51.0787 0.0056734 0)
(51.0808 0.00421573 0)
(51.0836 0.00264035 0)
(51.0866 0.000824604 0)
(51.09 -0.000628122 0)
(51.0936 -0.00198716 0)
(51.097 -0.00285828 0)
(51.1011 -0.0036347 0)
(51.0625 0.00156843 0)
(51.0593 0.00241762 0)
(51.0662 0.00431525 0)
(51.0685 0.005605 0)
(51.0716 0.0065242 0)
(51.0746 0.00725456 0)
(51.0764 0.00725907 0)
(51.0787 0.00676226 0)
(51.0804 0.00541668 0)
(51.0828 0.00382202 0)
(51.0854 0.00183439 0)
(51.0885 0.000130098 0)
(51.0919 -0.00150702 0)
(51.0954 -0.00263864 0)
(51.0988 -0.00359153 0)
(51.1027 -0.00416502 0)
(51.0626 0.00113123 0)
(51.0596 0.00220098 0)
(51.0667 0.00408266 0)
(51.069 0.0056854 0)
(51.0722 0.00672841 0)
(51.0752 0.00776155 0)
(51.0769 0.00804503 0)
(51.0789 0.0078632 0)
(51.0802 0.00671428 0)
(51.0822 0.0051833 0)
(51.0843 0.0030793 0)
(51.0871 0.00114324 0)
(51.0902 -0.000792672 0)
(51.0935 -0.00221374 0)
(51.0971 -0.00341348 0)
(51.1002 -0.00416183 0)
(51.104 -0.00475085 0)
(51.0627 0.000728995 0)
(51.06 0.00199676 0)
(51.0673 0.00381885 0)
(51.0695 0.0057308 0)
(51.0728 0.00688249 0)
(51.0758 0.00818537 0)
(51.0775 0.00876263 0)
(51.0794 0.00894079 0)
(51.0803 0.00807013 0)
(51.0818 0.00669561 0)
(51.0834 0.00455257 0)
(51.0858 0.00242304 0)
(51.0885 0.000188311 0)
(51.0917 -0.00155864 0)
(51.095 -0.00305744 0)
(51.0985 -0.00402634 0)
(51.1016 -0.00479535 0)
(51.1052 -0.00520316 0)
(51.0628 0.000355143 0)
(51.0603 0.001825 0)
(51.0678 0.00353151 0)
(51.0701 0.00572879 0)
(51.0734 0.0069766 0)
(51.0766 0.00851126 0)
(51.0782 0.0093882 0)
(51.08 0.00995704 0)
(51.0806 0.00943843 0)
(51.0817 0.00832043 0)
(51.0828 0.00623518 0)
(51.0846 0.00397625 0)
(51.0869 0.00146063 0)
(51.0898 -0.000633072 0)
(51.0931 -0.00247863 0)
(51.0964 -0.00374612 0)
(51.0998 -0.00470242 0)
(51.1027 -0.00530347 0)
(51.1062 -0.00567043 0)
(51.0629 -1.21877e-05 0)
(51.0606 0.00169507 0)
(51.0683 0.00322213 0)
(51.0706 0.00564916 0)
(51.074 0.00698962 0)
(51.0773 0.00872778 0)
(51.079 0.00990452 0)
(51.0808 0.0108832 0)
(51.0812 0.0107777 0)
(51.0818 0.010012 0)
(51.0824 0.00809572 0)
(51.0836 0.00579731 0)
(51.0854 0.00304602 0)
(51.088 0.000600711 0)
(51.091 -0.00163189 0)
(51.0943 -0.00325426 0)
(51.0976 -0.00450443 0)
(51.1009 -0.00525133 0)
(51.1037 -0.0058353 0)
(51.107 -0.00603642 0)
(51.063 -0.000408404 0)
(51.0609 0.00159085 0)
(51.0688 0.00289742 0)
(51.0711 0.00547466 0)
(51.0746 0.00690808 0)
(51.0781 0.00882724 0)
(51.0799 0.0102985 0)
(51.0817 0.0116903 0)
(51.082 0.0120424 0)
(51.0823 0.0117185 0)
(51.0823 0.0100908 0)
(51.0829 0.00786604 0)
(51.0841 0.00495458 0)
(51.0862 0.00217848 0)
(51.0889 -0.000468493 0)
(51.092 -0.00250389 0)
(51.0953 -0.00410701 0)
(51.0986 -0.00514031 0)
(51.1019 -0.00582038 0)
(51.1046 -0.00627771 0)
(51.1077 -0.00639088 0)
(51.063 -0.000856655 0)
(51.0611 0.00149348 0)
(51.0692 0.00256987 0)
(51.0715 0.00520335 0)
(51.0751 0.00672363 0)
(51.0788 0.00880946 0)
(51.0808 0.0105633 0)
(51.0827 0.0123597 0)
(51.0829 0.0131969 0)
(51.083 0.0133874 0)
(51.0825 0.0121658 0)
(51.0825 0.0101459 0)
(51.0831 0.00718073 0)
(51.0845 0.00412736 0)
(51.0868 0.00106108 0)
(51.0897 -0.00143634 0)
(51.093 -0.00346536 0)
(51.0963 -0.00484252 0)
(51.0996 -0.00579915 0)
(51.1027 -0.0062951 0)
(51.1053 -0.00671956 0)
(51.1083 -0.00667063 0)
(51.0631 -0.00135945 0)
(51.0613 0.00138073 0)
(51.0695 0.00225911 0)
(51.072 0.00486891 0)
(51.0756 0.00645143 0)
(51.0795 0.00868312 0)
(51.0817 0.0106977 0)
(51.0838 0.0128752 0)
(51.0841 0.0142054 0)
(51.084 0.014966 0)
(51.0831 0.0142607 0)
(51.0824 0.0125848 0)
(51.0823 0.00970004 0)
(51.0831 0.00645935 0)
(51.0848 0.00300112 0)
(51.0874 8.87952e-06 0)
(51.0905 -0.0025133 0)
(51.0938 -0.00431906 0)
(51.0972 -0.0056021 0)
(51.1004 -0.00636612 0)
(51.1034 -0.00676284 0)
(51.1059 -0.00709986 0)
(51.1087 -0.00692761 0)
(51.0631 -0.00189021 0)
(51.0615 0.00125057 0)
(51.0698 0.00198056 0)
(51.0724 0.00451608 0)
(51.0761 0.00611803 0)
(51.0802 0.00846708 0)
(51.0827 0.0107075 0)
(51.0849 0.0132316 0)
(51.0854 0.0150456 0)
(51.0852 0.0164087 0)
(51.084 0.0163113 0)
(51.0827 0.0151185 0)
(51.0819 0.0124677 0)
(51.0819 0.00916526 0)
(51.0829 0.00538233 0)
(51.085 0.001893 0)
(51.0879 -0.00118119 0)
(51.0911 -0.00349733 0)
(51.0945 -0.00520038 0)
(51.0979 -0.00627002 0)
(51.1011 -0.00692706 0)
(51.104 -0.0071611 0)
(51.1064 -0.00746903 0)
(51.1089 -0.00712831 0)
(51.0632 -0.00241271 0)
(51.0617 0.00111085 0)
(51.0701 0.0017387 0)
(51.0727 0.00419096 0)
(51.0765 0.00576202 0)
(51.0809 0.0081856 0)
(51.0836 0.0106048 0)
(51.0861 0.0134287 0)
(51.0867 0.0156988 0)
(51.0866 0.0176748 0)
(51.0852 0.0182562 0)
(51.0835 0.0176758 0)
(51.0818 0.015422 0)
(51.081 0.0122128 0)
(51.0813 0.00821445 0)
(51.0827 0.00426678 0)
(51.0852 0.000607448 0)
(51.0883 -0.00230239 0)
(51.0917 -0.00451694 0)
(51.0952 -0.005992 0)
(51.0985 -0.00692964 0)
(51.1016 -0.00741905 0)
(51.1044 -0.00753952 0)
(51.1067 -0.00779552 0)
(51.1091 -0.0073026 0)
(51.0632 -0.00289205 0)
(51.062 0.00098576 0)
(51.0703 0.00152283 0)
(51.073 0.00390749 0)
(51.077 0.00541086 0)
(51.0815 0.0078629 0)
(51.0844 0.010407 0)
(51.0872 0.0134766 0)
(51.0882 0.0161613 0)
(51.0882 0.0187364 0)
(51.0867 0.0200388 0)
(51.0846 0.0201819 0)
(51.0823 0.0184882 0)
(51.0806 0.0155481 0)
(51.08 0.0114807 0)
(51.0806 0.00716015 0)
(51.0825 0.00292266 0)
(51.0853 -0.000644041 0)
(51.0887 -0.00347422 0)
(51.0922 -0.00545122 0)
(51.0957 -0.0067738 0)
(51.099 -0.00751719 0)
(51.1021 -0.00789042 0)
(51.1047 -0.00786576 0)
(51.1069 -0.00810815 0)
(51.109 -0.00743516 0)
(51.0632 -0.00331362 0)
(51.0622 0.000895615 0)
(51.0706 0.00131572 0)
(51.0733 0.00365322 0)
(51.0773 0.00507963 0)
(51.0821 0.00751605 0)
(51.0853 0.0101327 0)
(51.0884 0.0133893 0)
(51.0896 0.0164339 0)
(51.0899 0.0195738 0)
(51.0884 0.0216125 0)
(51.0861 0.0225652 0)
(51.0832 0.0215846 0)
(51.0806 0.0191 0)
(51.079 0.0151398 0)
(51.0788 0.0105751 0)
(51.0799 0.00581621 0)
(51.0822 0.00156672 0)
(51.0854 -0.00197108 0)
(51.089 -0.00457183 0)
(51.0926 -0.00637597 0)
(51.0962 -0.00748078 0)
(51.0994 -0.00807925 0)
(51.1024 -0.0083089 0)
(51.1049 -0.0081686 0)
(51.1069 -0.00839148 0)
(51.1088 -0.00754563 0)
(51.0633 -0.00367807 0)
(51.0624 0.000857774 0)
(51.0708 0.00110132 0)
(51.0735 0.00339021 0)
(51.0777 0.00476163 0)
(51.0826 0.00715297 0)
(51.086 0.00979965 0)
(51.0895 0.0131863 0)
(51.0911 0.0165297 0)
(51.0917 0.0201817 0)
(51.0904 0.0229423 0)
(51.0879 0.0247597 0)
(51.0845 0.0246256 0)
(51.0812 0.0227844 0)
(51.0786 0.0191293 0)
(51.0773 0.0144862 0)
(51.0775 0.00930972 0)
(51.0792 0.00440312 0)
(51.082 9.86293e-05 0)
(51.0855 -0.00324384 0)
(51.0893 -0.00566434 0)
(51.093 -0.00722353 0)
(51.0965 -0.00815744 0)
(51.0997 -0.00858396 0)
(51.1025 -0.00870218 0)
(51.1049 -0.00843217 0)
(51.1067 -0.00866318 0)
(51.1084 -0.00762553 0)
(51.0633 -0.0039993 0)
(51.0626 0.000872567 0)
(51.0709 0.000873452 0)
(51.0738 0.00308317 0)
(51.078 0.0044437 0)
(51.0831 0.00677399 0)
(51.0868 0.00942205 0)
(51.0905 0.0128873 0)
(51.0925 0.0164635 0)
(51.0935 0.020562 0)
(51.0925 0.0240071 0)
(51.09 0.0267117 0)
(51.0864 0.0275303 0)
(51.0823 0.0265104 0)
(51.0787 0.0233699 0)
(51.0763 0.0188437 0)
(51.0755 0.0133955 0)
(51.0763 0.00790705 0)
(51.0785 0.00282964 0)
(51.0817 -0.00134537 0)
(51.0855 -0.00452299 0)
(51.0895 -0.00668153 0)
(51.0932 -0.00803616 0)
(51.0967 -0.00877196 0)
(51.0998 -0.00905772 0)
(51.1025 -0.00905409 0)
(51.1047 -0.00867434 0)
(51.1063 -0.00891382 0)
(51.1078 -0.00768819 0)
(51.0633 -0.00429434 0)
(51.0628 0.000931585 0)
(51.071 0.00063336 0)
(51.0739 0.00270744 0)
(51.0782 0.0041093 0)
(51.0835 0.00637813 0)
(51.0874 0.00901094 0)
(51.0914 0.012512 0)
(51.0938 0.0162569 0)
(51.0953 0.0207279 0)
(51.0947 0.0247984 0)
(51.0924 0.0283798 0)
(51.0886 0.0302225 0)
(51.084 0.0301823 0)
(51.0794 0.0277704 0)
(51.0759 0.0235788 0)
(51.0739 0.0180395 0)
(51.0736 0.0120891 0)
(51.0751 0.00628401 0)
(51.0779 0.00123879 0)
(51.0815 -0.00281653 0)
(51.0856 -0.00573503 0)
(51.0896 -0.00766127 0)
(51.0934 -0.00878107 0)
(51.0968 -0.00934952 0)
(51.0998 -0.00948473 0)
(51.1024 -0.00938107 0)
(51.1043 -0.00888624 0)
(51.1057 -0.00915447 0)
(51.107 -0.00772954 0)
(51.0634 -0.00458116 0)
(51.0629 0.00100984 0)
(51.0711 0.000385623 0)
(51.0741 0.00226157 0)
(51.0785 0.00375393 0)
(51.0839 0.00596696 0)
(51.088 0.00857527 0)
(51.0923 0.0120771 0)
(51.0951 0.0159299 0)
(51.097 0.0206962 0)
(51.0969 0.0253195 0)
(51.095 0.0297383 0)
(51.0911 0.0326401 0)
(51.0861 0.0337092 0)
(51.0807 0.0322311 0)
(51.076 0.0286072 0)
(51.0728 0.0231866 0)
(51.0714 0.0169306 0)
(51.0718 0.0104897 0)
(51.0739 0.00459042 0)
(51.0772 -0.000410049 0)
(51.0813 -0.00423668 0)
(51.0855 -0.00691195 0)
(51.0897 -0.00856996 0)
(51.0935 -0.00948251 0)
(51.0968 -0.00987447 0)
(51.0996 -0.0098802 0)
(51.102 -0.0096747 0)
(51.1036 -0.00907909 0)
(51.1048 -0.00937894 0)
(51.1059 -0.00776103 0)
(51.0634 -0.00487441 0)
(51.0631 0.0010805 0)
(51.0712 0.000133987 0)
(51.0743 0.00175593 0)
(51.0787 0.00338095 0)
(51.0843 0.00554782 0)
(51.0885 0.008123 0)
(51.0931 0.0115976 0)
(51.0963 0.0155047 0)
(51.0987 0.0204904 0)
(51.0991 0.0255833 0)
(51.0977 0.030775 0)
(51.094 0.0347326 0)
(51.0888 0.0370036 0)
(51.0827 0.0366476 0)
(51.0769 0.0338324 0)
(51.0723 0.0287664 0)
(51.0696 0.0223929 0)
(51.0689 0.0154433 0)
(51.0701 0.00875427 0)
(51.0728 0.00279786 0)
(51.0766 -0.00203256 0)
(51.081 -0.00563041 0)
(51.0854 -0.00801808 0)
(51.0896 -0.00942924 0)
(51.0934 -0.0101248 0)
(51.0966 -0.0103615 0)
(51.0993 -0.0102369 0)
(51.1014 -0.00994484 0)
(51.1027 -0.00924779 0)
(51.1037 -0.00959573 0)
(51.1046 -0.00778014 0)
(51.0635 -0.00518275 0)
(51.0632 0.00110888 0)
(51.0712 -0.000119779 0)
(51.0744 0.00121759 0)
(51.0789 0.00300465 0)
(51.0846 0.00513106 0)
(51.089 0.00766179 0)
(51.0939 0.0110855 0)
(51.0975 0.0150003 0)
(51.1004 0.0201341 0)
(51.1013 0.0256094 0)
(51.1004 0.0314914 0)
(51.0971 0.0364672 0)
(51.0918 0.0399922 0)
(51.0852 0.0409162 0)
(51.0784 0.0391467 0)
(51.0725 0.0346932 0)
(51.0683 0.0284221 0)
(51.0664 0.0211206 0)
(51.0665 0.0137392 0)
(51.0684 0.00686683 0)
(51.0718 0.000997422 0)
(51.076 -0.00364494 0)
(51.0807 -0.00695832 0)
(51.0853 -0.0090711 0)
(51.0895 -0.0102236 0)
(51.0931 -0.0107225 0)
(51.0962 -0.0108039 0)
(51.0987 -0.0105638 0)
(51.1005 -0.0101869 0)
(51.1015 -0.00940093 0)
(51.1023 -0.00980069 0)
(51.1031 -0.00779507 0)
(51.0635 -0.00550261 0)
(51.0633 0.00106865 0)
(51.0712 -0.000374461 0)
(51.0745 0.000675591 0)
(51.0791 0.00264164 0)
(51.0849 0.00472783 0)
(51.0895 0.00719831 0)
(51.0945 0.0105512 0)
(51.0985 0.0144356 0)
(51.1019 0.0196535 0)
(51.1035 0.0254231 0)
(51.1032 0.0318997 0)
(51.1004 0.0378255 0)
(51.0953 0.0426129 0)
(51.0884 0.0449372 0)
(51.0807 0.0444365 0)
(51.0734 0.0408669 0)
(51.0678 0.0349508 0)
(51.0644 0.0274863 0)
(51.0632 0.0195338 0)
(51.0642 0.0118159 0)
(51.0669 0.00492776 0)
(51.0708 -0.000815569 0)
(51.0754 -0.00520174 0)
(51.0803 -0.00823276 0)
(51.0849 -0.0100553 0)
(51.0891 -0.0109669 0)
(51.0927 -0.0112695 0)
(51.0956 -0.0112108 0)
(51.0978 -0.0108574 0)
(51.0994 -0.0104077 0)
(51.1001 -0.00953567 0)
(51.1006 -0.0100001 0)
(51.1014 -0.00780186 0)
(51.0635 -0.00582455 0)
(51.0635 0.000935409 0)
(51.0711 -0.000631234 0)
(51.0746 0.000167779 0)
(51.0793 0.00230977 0)
(51.0851 0.00434729 0)
(51.0898 0.00673801 0)
(51.0951 0.010003 0)
(51.0994 0.013826 0)
(51.1033 0.0190722 0)
(51.1055 0.025052 0)
(51.1059 0.0320215 0)
(51.1038 0.038806 0)
(51.099 0.0448239 0)
(51.092 0.0486222 0)
(51.0836 0.0495838 0)
(51.0752 0.0471733 0)
(51.068 0.0418958 0)
(51.063 0.0344953 0)
(51.0604 0.026119 0)
(51.0602 0.0176414 0)
(51.0621 0.0097836 0)
(51.0654 0.00294494 0)
(51.0698 -0.00258913 0)
(51.0747 -0.00670961 0)
(51.0798 -0.00943629 0)
(51.0845 -0.0109823 0)
(51.0886 -0.0116532 0)
(51.0921 -0.0117753 0)
(51.0948 -0.0115787 0)
(51.0967 -0.0111235 0)
(51.0979 -0.0106055 0)
(51.0984 -0.00965878 0)
(51.0988 -0.0101896 0)
(51.0994 -0.00780458 0)
(51.0635 -0.00613552 0)
(51.0636 0.000692697 0)
(51.0711 -0.000896274 0)
(51.0747 -0.000277655 0)
(51.0795 0.00202088 0)
(51.0853 0.00399537 0)
(51.0902 0.00628527 0)
(51.0957 0.00944812 0)
(51.1002 0.0131861 0)
(51.1046 0.0184139 0)
(51.1074 0.0245254 0)
(51.1085 0.0318846 0)
(51.1071 0.0394196 0)
(51.103 0.0465985 0)
(51.0961 0.0518962 0)
(51.0873 0.0544744 0)
(51.0778 0.0534871 0)
(51.0691 0.0491557 0)
(51.0623 0.042089 0)
(51.0581 0.033473 0)
(51.0566 0.0243375 0)
(51.0574 0.0155659 0)
(51.06 0.00766621 0)
(51.064 0.000979994 0)
(51.0688 -0.00432127 0)
(51.074 -0.00814621 0)
(51.0791 -0.010577 0)
(51.0839 -0.0118467 0)
(51.088 -0.012293 0)
(51.0913 -0.0122373 0)
(51.0937 -0.0119142 0)
(51.0954 -0.0113615 0)
(51.0963 -0.0107857 0)
(51.0965 -0.00976879 0)
(51.0969 -0.010372 0)
(51.0969 -0.00779714 0)
(51.0636 -0.00643859 0)
(51.0637 0.000328873 0)
(51.0711 -0.00117807 0)
(51.0748 -0.000640807 0)
(51.0797 0.00177981 0)
(51.0855 0.00367445 0)
(51.0905 0.00584386 0)
(51.0961 0.00889297 0)
(51.101 0.0125272 0)
(51.1058 0.0176981 0)
(51.1092 0.0238717 0)
(51.1111 0.0315209 0)
(51.1105 0.0396893 0)
(51.107 0.0479312 0)
(51.1005 0.0547048 0)
(51.0915 0.0590022 0)
(51.0812 0.0596754 0)
(51.071 0.056609 0)
(51.0625 0.0501895 0)
(51.0565 0.0415661 0)
(51.0534 0.031903 0)
(51.053 0.0222754 0)
(51.0547 0.0133474 0)
(51.0581 0.00553602 0)
(51.0625 -0.000956006 0)
(51.0677 -0.00598438 0)
(51.0731 -0.00951645 0)
(51.0783 -0.0116491 0)
(51.083 -0.012658 0)
(51.087 -0.0128833 0)
(51.0902 -0.0126627 0)
(51.0924 -0.0122166 0)
(51.0937 -0.0115767 0)
(51.0944 -0.0109493 0)
(51.0945 -0.00986974 0)
(51.0946 -0.010538 0)
(51.0938 -0.00778738 0)
(51.0635 -0.00674284 0)
(51.0638 -0.000164175 0)
(51.071 -0.00148463 0)
(51.0749 -0.000914026 0)
(51.0799 0.00157983 0)
(51.0857 0.00338284 0)
(51.0908 0.00541755 0)
(51.0966 0.00834373 0)
(51.1017 0.0118601 0)
(51.1068 0.0169429 0)
(51.1108 0.0231179 0)
(51.1135 0.0309639 0)
(51.1137 0.0396456 0)
(51.1111 0.0488294 0)
(51.1052 0.0570126 0)
(51.0963 0.0630774 0)
(51.0854 0.0656056 0)
(51.0739 0.0641181 0)
(51.0636 0.0586949 0)
(51.0557 0.0503534 0)
(51.0508 0.0403379 0)
(51.049 0.0299274 0)
(51.0496 0.0199906 0)
(51.0522 0.0110728 0)
(51.0562 0.00341649 0)
(51.0611 -0.00282703 0)
(51.0665 -0.00757707 0)
(51.072 -0.010811 0)
(51.0773 -0.0126598 0)
(51.082 -0.0134146 0)
(51.0859 -0.0134333 0)
(51.0888 -0.0130508 0)
(51.0908 -0.0124917 0)
(51.0918 -0.0117716 0)
(51.0924 -0.0110996 0)
(51.0924 -0.00995575 0)
(51.0916 -0.0106872 0)
(51.0905 -0.00778164 0)
(51.0635 -0.00706327 0)
(51.0639 -0.000777428 0)
(51.071 -0.00180995 0)
(51.075 -0.00109572 0)
(51.08 0.00140913 0)
(51.0859 0.00311481 0)
(51.091 0.00500949 0)
(51.0969 0.00780627 0)
(51.1023 0.0111931 0)
(51.1078 0.0161628 0)
(51.1123 0.0222883 0)
(51.1157 0.0302469 0)
(51.1169 0.0393246 0)
(51.1152 0.0493174 0)
(51.1101 0.0588067 0)
(51.1015 0.06663 0)
(51.0903 0.0711529 0)
(51.0777 0.071532 0)
(51.0657 0.0674756 0)
(51.0557 0.059764 0)
(51.0489 0.0496347 0)
(51.0453 0.0385488 0)
(51.0447 0.0276208 0)
(51.0464 0.0175868 0)
(51.0498 0.00877949 0)
(51.0543 0.00135241 0)
(51.0595 -0.00462589 0)
(51.0651 -0.00908693 0)
(51.0707 -0.0120361 0)
(51.076 -0.0136088 0)
(51.0806 -0.0141246 0)
(51.0844 -0.0139409 0)
(51.0872 -0.0134084 0)
(51.0889 -0.0127419 0)
(51.0898 -0.0119506 0)
(51.0904 -0.0112355 0)
(51.0898 -0.0100241 0)
(51.0878 -0.0108158 0)
(51.088 -0.00780465 0)
(51.0635 -0.00740504 0)
(51.064 -0.00148245 0)
(51.071 -0.0021366 0)
(51.0751 -0.00117437 0)
(51.0802 0.00125252 0)
(51.086 0.00286318 0)
(51.0912 0.00462144 0)
(51.0973 0.0072857 0)
(51.1028 0.0105342 0)
(51.1087 0.0153709 0)
(51.1137 0.021405 0)
(51.1178 0.0294019 0)
(51.1198 0.0387645 0)
(51.1192 0.0494266 0)
(51.115 0.0600918 0)
(51.1071 0.0696133 0)
(51.0958 0.076208 0)
(51.0825 0.0786975 0)
(51.0688 0.0763786 0)
(51.0568 0.069695 0)
(51.0477 0.0597644 0)
(51.0422 0.0481703 0)
(51.0401 0.0362864 0)
(51.0407 0.0251061 0)
(51.0434 0.0151192 0)
(51.0475 0.00652382 0)
(51.0524 -0.000640401 0)
(51.0579 -0.00633412 0)
(51.0636 -0.010516 0)
(51.0692 -0.0131887 0)
(51.0745 -0.0145017 0)
(51.079 -0.0147868 0)
(51.0827 -0.0144145 0)
(51.0852 -0.0137366 0)
(51.0868 -0.0129738 0)
(51.0878 -0.012116 0)
(51.0881 -0.0113532 0)
(51.0862 -0.0100666 0)
(51.0841 -0.0109531 0)
(51.0874 -0.0078435 0)
(51.0635 -0.00775127 0)
(51.0641 -0.0022273 0)
(51.071 -0.00243973 0)
(51.0751 -0.00114139 0)
(51.0803 0.00110268 0)
(51.0861 0.00262086 0)
(51.0914 0.00425396 0)
(51.0975 0.00678583 0)
(51.1033 0.00988926 0)
(51.1095 0.0145774 0)
(51.115 0.0204867 0)
(51.1197 0.0284582 0)
(51.1226 0.0380042 0)
(51.123 0.0491981 0)
(51.1199 0.0608906 0)
(51.1129 0.0720049 0)
(51.1019 0.0806834 0)
(51.0881 0.0854671 0)
(51.0731 0.0852328 0)
(51.059 0.0800067 0)
(51.0475 0.0706635 0)
(51.0398 0.0588088 0)
(51.0359 0.0460528 0)
(51.0352 0.0336926 0)
(51.037 0.0224594 0)
(51.0406 0.0126572 0)
(51.0452 0.00433128 0)
(51.0505 -0.00253713 0)
(51.0561 -0.00795037 0)
(51.0618 -0.0118593 0)
(51.0674 -0.0142738 0)
(51.0726 -0.0153387 0)
(51.0771 -0.0154082 0)
(51.0806 -0.0148522 0)
(51.083 -0.0140436 0)
(51.0847 -0.0131907 0)
(51.0857 -0.0122662 0)
(51.0849 -0.0114436 0)
(51.0819 -0.0101051 0)
(51.0821 -0.0111098 0)
(51.0879 -0.00790503 0)
(51.0634 -0.00808967 0)
(51.0641 -0.00293112 0)
(51.071 -0.00269564 0)
(51.0752 -0.000997178 0)
(51.0804 0.000954181 0)
(51.0862 0.00238523 0)
(51.0915 0.00390614 0)
(51.0978 0.00630919 0)
(51.1037 0.0092634 0)
(51.1102 0.0137915 0)
(51.1161 0.0195502 0)
(51.1215 0.0274426 0)
(51.1253 0.0370814 0)
(51.1267 0.0486746 0)
(51.1248 0.0612366 0)
(51.1187 0.0738045 0)
(51.1084 0.0845177 0)
(51.0944 0.0917088 0)
(51.0784 0.0938609 0)
(51.0623 0.0905287 0)
(51.0485 0.0822265 0)
(51.0382 0.0704526 0)
(51.0321 0.0569845 0)
(51.0299 0.043441 0)
(51.0307 0.0308679 0)
(51.0336 0.0197684 0)
(51.0378 0.0102399 0)
(51.0429 0.00223513 0)
(51.0484 -0.00433114 0)
(51.0541 -0.00946496 0)
(51.0598 -0.0131188 0)
(51.0654 -0.0152896 0)
(51.0705 -0.0161241 0)
(51.0748 -0.0159868 0)
(51.0781 -0.0152645 0)
(51.0806 -0.014332 0)
(51.0826 -0.0133962 0)
(51.083 -0.0123916 0)
(51.0804 -0.0115129 0)
(51.0785 -0.0101636 0)
(51.0828 -0.0112966 0)
(51.0753 -0.00793118 0)
(51.0633 -0.00838116 0)
(51.0642 -0.00353256 0)
(51.071 -0.00289586 0)
(51.0753 -0.000762674 0)
(51.0805 0.000805113 0)
(51.0863 0.00215477 0)
(51.0917 0.0035776 0)
(51.098 0.00585684 0)
(51.1041 0.00866002 0)
(51.1108 0.0130198 0)
(51.1171 0.0186092 0)
(51.1231 0.0263787 0)
(51.1277 0.0360316 0)
(51.1302 0.0479022 0)
(51.1295 0.0611744 0)
(51.1247 0.0750314 0)
(51.1152 0.0876765 0)
(51.1015 0.0973143 0)
(51.0847 0.102088 0)
(51.067 0.101066 0)
(51.0506 0.0943021 0)
(51.0377 0.0830447 0)
(51.0291 0.0691264 0)
(51.0249 0.0544583 0)
(51.0243 0.0404596 0)
(51.0264 0.0279234 0)
(51.0303 0.0170889 0)
(51.0352 0.00790984 0)
(51.0406 0.000248271 0)
(51.0462 -0.00600775 0)
(51.0519 -0.0108783 0)
(51.0575 -0.014292 0)
(51.063 -0.0162403 0)
(51.068 -0.016857 0)
(51.0722 -0.0165302 0)
(51.0755 -0.0156495 0)
(51.0784 -0.0146102 0)
(51.0802 -0.0135801 0)
(51.0787 -0.0124826 0)
(51.0758 -0.0115913 0)
(51.0779 -0.0102683 0)
(51.0866 -0.0114574 0)
(50.9788 -0.00748369 0)
(51.0633 -0.00859935 0)
(51.0643 -0.00394798 0)
(51.0711 -0.00303556 0)
(51.0754 -0.00049982 0)
(51.0806 0.000650516 0)
(51.0864 0.00192832 0)
(51.0918 0.0032671 0)
(51.0982 0.00542951 0)
(51.1044 0.00808205 0)
(51.1113 0.0122686 0)
(51.118 0.017675 0)
(51.1245 0.0252871 0)
(51.1299 0.034887 0)
(51.1335 0.0469244 0)
(51.134 0.0607519 0)
(51.1305 0.0757203 0)
(51.1222 0.0901508 0)
(51.109 0.102204 0)
(51.092 0.109757 0)
(51.0728 0.111412 0)
(51.0542 0.106698 0)
(51.0383 0.0964744 0)
(51.0269 0.0824843 0)
(51.0203 0.0668485 0)
(51.0181 0.0513773 0)
(51.0192 0.037249 0)
(51.0225 0.0249374 0)
(51.0272 0.014478 0)
(51.0325 0.00568892 0)
(51.0382 -0.00160949 0)
(51.0439 -0.00756541 0)
(51.0495 -0.0121853 0)
(51.055 -0.0153817 0)
(51.0603 -0.0171233 0)
(51.0652 -0.017541 0)
(51.0693 -0.0170359 0)
(51.0729 -0.0160207 0)
(51.0762 -0.0148703 0)
(51.0765 -0.0137232 0)
(51.0731 -0.0125643 0)
(51.0734 -0.011712 0)
(51.0795 -0.0104102 0)
(51.06 -0.011209 0)
(50.7619 -0.00626318 0)
(51.0633 -0.00872591 0)
(51.0644 -0.004137 0)
(51.0712 -0.0031273 0)
(51.0754 -0.000256119 0)
(51.0807 0.000480371 0)
(51.0864 0.00170273 0)
(51.0919 0.00297277 0)
(51.0984 0.00502681 0)
(51.1047 0.00753158 0)
(51.1118 0.0115419 0)
(51.1188 0.0167567 0)
(51.1258 0.0241851 0)
(51.132 0.0336767 0)
(51.1365 0.0457843 0)
(51.1383 0.0600215 0)
(51.1362 0.0759179 0)
(51.1292 0.0919553 0)
(51.117 0.106327 0)
(51.1 0.116734 0)
(51.0799 0.121362 0)
(51.0592 0.11919 0)
(51.0404 0.110573 0)
(51.0258 0.0970056 0)
(51.0164 0.0806864 0)
(51.012 0.0637774 0)
(51.0118 0.0479105 0)
(51.0144 0.0339145 0)
(51.0188 0.021986 0)
(51.0242 0.011967 0)
(51.0299 0.0036004 0)
(51.0358 -0.00333398 0)
(51.0414 -0.00899639 0)
(51.0469 -0.0133891 0)
(51.0522 -0.016386 0)
(51.0574 -0.0179419 0)
(51.0621 -0.0181747 0)
(51.0663 -0.0175158 0)
(51.0706 -0.0163721 0)
(51.0732 -0.0150894 0)
(51.0707 -0.0138303 0)
(51.0687 -0.0126707 0)
(51.0749 -0.0118897 0)
(51.0716 -0.0105142 0)
(50.9009 -0.00970575 0)
(50.4757 -0.00486519 0)
(51.0632 -0.00873734 0)
(51.0644 -0.00409193 0)
(51.0712 -0.00318851 0)
(51.0755 -0.000116771 0)
(51.0807 0.000292726 0)
(51.0865 0.00147135 0)
(51.092 0.00269133 0)
(51.0985 0.0046474 0)
(51.105 0.00701021 0)
(51.1123 0.0108441 0)
(51.1196 0.0158615 0)
(51.127 0.0230871 0)
(51.1338 0.0324257 0)
(51.1393 0.0445201 0)
(51.1423 0.0590337 0)
(51.1417 0.0756781 0)
(51.1362 0.0931237 0)
(51.1252 0.109664 0)
(51.1087 0.122918 0)
(51.0881 0.13073 0)
(51.0656 0.13154 0)
(51.0441 0.125122 0)
(51.0261 0.112567 0)
(51.0134 0.0959935 0)
(51.0064 0.0778098 0)
(51.0044 0.0601101 0)
(51.006 0.0441981 0)
(51.01 0.0305597 0)
(51.0153 0.0191159 0)
(51.0212 0.00958747 0)
(51.0273 0.00165377 0)
(51.0332 -0.00491526 0)
(51.0388 -0.0103047 0)
(51.0441 -0.0144873 0)
(51.0493 -0.0173072 0)
(51.0542 -0.0186933 0)
(51.0588 -0.0187648 0)
(51.0638 -0.0179692 0)
(51.0684 -0.0166874 0)
(51.0681 -0.0152482 0)
(51.0645 -0.0139302 0)
(51.0681 -0.0128636 0)
(51.0778 -0.0120521 0)
(50.9665 -0.00985018 0)
(50.6366 -0.00749885 0)
(50.1507 -0.00352965 0)
(51.0632 -0.008681 0)
(51.0645 -0.00380982 0)
(51.0713 -0.00323888 0)
(51.0756 -0.000134535 0)
(51.0807 7.96857e-05 0)
(51.0865 0.00123251 0)
(51.0921 0.00241729 0)
(51.0986 0.00428852 0)
(51.1052 0.00651797 0)
(51.1126 0.0101779 0)
(51.1202 0.0149954 0)
(51.1281 0.0220045 0)
(51.1355 0.0311553 0)
(51.1419 0.0431674 0)
(51.1461 0.0578388 0)
(51.1469 0.0750592 0)
(51.143 0.0937048 0)
(51.1335 0.112223 0)
(51.1179 0.128239 0)
(51.0972 0.139351 0)
(51.0734 0.143509 0)
(51.0493 0.139865 0)
(51.028 0.128975 0)
(51.0116 0.112712 0)
(51.0014 0.0935801 0)
(50.997 0.0740675 0)
(50.9973 0.0560195 0)
(51.0008 0.0403745 0)
(51.0059 0.0272533 0)
(51.012 0.0163696 0)
(51.0184 0.00735152 0)
(51.0247 -0.000141946 0)
(51.0306 -0.00635668 0)
(51.036 -0.0114856 0)
(51.0411 -0.0154838 0)
(51.0461 -0.0181443 0)
(51.0509 -0.019381 0)
(51.056 -0.0193164 0)
(51.0619 -0.0183909 0)
(51.0646 -0.0169252 0)
(51.061 -0.0153582 0)
(51.0613 -0.01411 0)
(51.0716 -0.0130815 0)
(51.0283 -0.011768 0)
(50.7249 -0.00804234 0)
(50.3154 -0.00535322 0)
(49.8097 -0.00234001 0)
(51.0631 -0.00857038 0)
(51.0645 -0.00339807 0)
(51.0713 -0.00330239 0)
(51.0756 -0.000336912 0)
(51.0808 -0.000156959 0)
(51.0866 0.000982078 0)
(51.0921 0.00214714 0)
(51.0987 0.00394522 0)
(51.1054 0.00605362 0)
(51.113 0.00954524 0)
(51.1208 0.0141634 0)
(51.129 0.0209473 0)
(51.137 0.0298833 0)
(51.1442 0.041756 0)
(51.1496 0.056482 0)
(51.1519 0.0741199 0)
(51.1497 0.0937576 0)
(51.1417 0.114035 0)
(51.1274 0.132664 0)
(51.1071 0.147099 0)
(51.0824 0.154877 0)
(51.0562 0.154529 0)
(51.0316 0.14598 0)
(51.0114 0.130694 0)
(50.9974 0.11111 0)
(50.99 0.0899809 0)
(50.9884 0.0696631 0)
(50.9909 0.0516773 0)
(50.9959 0.0365416 0)
(51.0021 0.0240557 0)
(51.0088 0.0137665 0)
(51.0156 0.00527257 0)
(51.0221 -0.00178566 0)
(51.028 -0.00765244 0)
(51.0332 -0.012547 0)
(51.0382 -0.0163784 0)
(51.0429 -0.0188981 0)
(51.0477 -0.0200123 0)
(51.0541 -0.0198378 0)
(51.0597 -0.0187323 0)
(51.058 -0.0170762 0)
(51.0551 -0.0155008 0)
(51.0632 -0.0143483 0)
(51.0588 -0.0131999 0)
(50.8267 -0.0100815 0)
(50.4126 -0.00613291 0)
(49.9647 -0.00339967 0)
(49.4684 -0.00135894 0)
(51.0631 -0.00842602 0)
(51.0646 -0.00294454 0)
(51.0713 -0.00337642 0)
(51.0756 -0.000753214 0)
(51.0808 -0.000412961 0)
(51.0866 0.000722042 0)
(51.0922 0.00187529 0)
(51.0988 0.00361305 0)
(51.1055 0.00561309 0)
(51.1133 0.00894582 0)
(51.1213 0.0133686 0)
(51.1299 0.0199232 0)
(51.1384 0.0286247 0)
(51.1464 0.0403125 0)
(51.1528 0.0550056 0)
(51.1565 0.0729178 0)
(51.156 0.093347 0)
(51.1499 0.115151 0)
(51.1371 0.136192 0)
(51.1176 0.153883 0)
(51.0927 0.165447 0)
(51.0647 0.168839 0)
(51.037 0.163294 0)
(51.0129 0.149717 0)
(50.9948 0.130319 0)
(50.9837 0.107967 0)
(50.9794 0.0854217 0)
(50.9805 0.0648028 0)
(50.9851 0.0472215 0)
(50.9915 0.0327841 0)
(50.9985 0.0210005 0)
(51.0057 0.0113252 0)
(51.0129 0.00335098 0)
(51.0195 -0.00327442 0)
(51.0253 -0.00881156 0)
(51.0304 -0.0134884 0)
(51.0351 -0.0171731 0)
(51.0396 -0.0195762 0)
(51.0456 -0.0206081 0)
(51.0532 -0.0202911 0)
(51.0549 -0.0189656 0)
(51.0504 -0.0171783 0)
(51.0542 -0.0157493 0)
(51.0654 -0.0146378 0)
(50.9173 -0.0120905 0)
(50.527 -0.00784466 0)
(50.0611 -0.00435443 0)
(49.605 -0.0017534 0)
(49.1368 -0.000597282 0)
(51.0632 -0.00828255 0)
(51.0646 -0.00252484 0)
(51.0713 -0.00348012 0)
(51.0757 -0.00129214 0)
(51.0808 -0.000687633 0)
(51.0866 0.000455718 0)
(51.0922 0.00159967 0)
(51.0989 0.00328519 0)
(51.1057 0.00519221 0)
(51.1135 0.00837729 0)
(51.1217 0.0126121 0)
(51.1307 0.0189378 0)
(51.1396 0.0273921 0)
(51.1484 0.0388591 0)
(51.1558 0.0534458 0)
(51.1609 0.0715068 0)
(51.162 0.0925401 0)
(51.1578 0.115633 0)
(51.1468 0.13885 0)
(51.1286 0.159655 0)
(51.1039 0.175064 0)
(51.0747 0.182537 0)
(51.0444 0.180605 0)
(51.0164 0.169499 0)
(50.9939 0.151028 0)
(50.9785 0.128022 0)
(50.9708 0.103517 0)
(50.9696 0.0801409 0)
(50.9734 0.0596651 0)
(50.9798 0.0427734 0)
(50.9873 0.0291613 0)
(50.9951 0.0181153 0)
(51.0028 0.00904814 0)
(51.0102 0.00159297 0)
(51.0169 -0.00461223 0)
(51.0227 -0.00983466 0)
(51.0277 -0.0143173 0)
(51.032 -0.0178729 0)
(51.0371 -0.0202063 0)
(51.0453 -0.0211541 0)
(51.0509 -0.0206414 0)
(51.0473 -0.019058 0)
(51.0464 -0.017401 0)
(51.0591 -0.0160662 0)
(50.9896 -0.0141857 0)
(50.6382 -0.00975265 0)
(50.1762 -0.00576038 0)
(49.6939 -0.00279663 0)
(49.2503 -0.000452964 0)
(48.8208 -3.93467e-05 0)
(51.0631 -0.00819959 0)
(51.0647 -0.00223598 0)
(51.0714 -0.0036221 0)
(51.0757 -0.00189868 0)
(51.0808 -0.000958079 0)
(51.0867 0.000185236 0)
(51.0923 0.00131961 0)
(51.099 0.00295738 0)
(51.1058 0.00478376 0)
(51.1138 0.00783608 0)
(51.1221 0.0118927 0)
(51.1313 0.0179945 0)
(51.1408 0.0261951 0)
(51.1501 0.0374153 0)
(51.1585 0.0518358 0)
(51.1649 0.0699363 0)