/*--------------------------------*- C++ -*----------------------------------*\
  =========                 |
  \\      /  F ield         | OpenFOAM: The Open Source CFD Toolbox
   \\    /   O peration     | Website:  https://openfoam.org
    \\  /    A nd           | Version:  dev
     \\/     M anipulation  |
\*---------------------------------------------------------------------------*/
FoamFile
{
    version     2.0;
    format      ascii;
    class       volScalarField;
    location    "275";
    object      yPlus;
}
// * * * * * * * * * * * * * * * * * * * * * * * * * * * * * * * * * * * * * //

dimensions      [0 0 0 0 0 0 0];

internalField   uniform 0;

boundaryField
{
    inlet-l
    {
        type            calculated;
        value           uniform 0;
    }
    airfoil-l1
    {
        type            calculated;
        value           nonuniform List<scalar> 
71
(
191.496
214.756
249.843
283.653
310.227
327.631
337.945
343.124
344.657
343.68
340.882
337.02
331.662
325.246
318.17
310.701
303.01
295.203
287.336
279.49
271.726
264.064
256.535
249.168
241.99
235.025
228.295
221.815
215.63
209.769
204.269
199.17
194.52
190.356
186.739
183.702
181.268
179.426
178.135
177.348
176.948
176.854
177.031
177.331
177.745
178.116
178.486
178.735
178.861
178.817
178.621
178.182
177.477
176.573
175.428
174.013
172.41
170.566
168.554
166.344
164.021
161.555
158.994
156.364
153.671
150.963
148.244
145.562
142.897
140.391
137.761
)
;
    }
    empty-1
    {
        type            empty;
    }
    empty-2
    {
        type            empty;
    }
    wall-l1
    {
        type            calculated;
        value           nonuniform List<scalar> 
104
(
14.0019
17.1072
18.7383
19.492
17.9016
17.7501
18.5308
18.2613
17.5439
16.5254
16.4058
16.6466
16.7053
17.099
17.2687
17.5115
17.571
17.3904
17.3752
17.3163
17.2778
17.323
17.2967
17.3535
17.4297
17.4603
17.5231
17.6342
17.8857
18.2792
18.6495
18.8032
18.6154
18.1676
17.7214
17.531
17.7011
18.1489
18.6432
18.9505
18.9783
18.8007
18.5802
18.4502
18.4521
18.5539
18.7047
18.8763
19.0677
19.2683
19.4384
19.5138
19.4446
19.2404
18.9706
18.7321
18.5932
18.5694
18.6325
18.7506
18.9226
19.1821
19.5632
20.0508
20.5466
20.8883
20.9182
20.5557
19.8549
19.0124
18.2974
17.9202
17.9614
18.3889
19.0631
19.7477
20.2023
20.2899
20.0136
19.5005
18.944
18.5212
18.3286
18.3706
18.5785
18.8405
19.0396
19.0997
19.0119
18.8308
18.6394
18.5142
18.4925
18.5699
18.7038
18.8361
18.9124
18.9024
18.8071
18.6518
18.4735
18.3146
18.1939
18.1471
)
;
    }
    airfoil-l2
    {
        type            calculated;
        value           nonuniform List<scalar> 
104
(
137.409
139.778
141.625
142.957
143.924
144.608
145.07
145.351
145.5
145.546
145.472
145.297
145.055
144.768
144.446
144.093
143.711
143.328
142.922
142.502
142.079
141.651
141.218
140.774
140.327
139.879
139.428
138.973
138.517
138.055
137.586
137.127
136.674
136.21
135.742
135.277
134.814
134.354
133.893
133.427
132.96
132.493
132.025
131.559
131.096
130.631
130.163
129.694
129.228
128.76
128.29
127.817
127.344
126.873
126.4
125.926
125.445
124.964
124.481
123.994
123.501
123.011
122.523
122.024
121.521
121.012
120.494
119.969
119.442
118.915
118.379
117.827
117.271
116.711
116.13
115.553
114.964
114.351
113.727
113.087
112.429
111.749
111.06
110.345
109.602
108.835
108.041
107.209
106.329
105.421
104.465
103.454
102.379
101.23
99.997
98.6641
97.2148
95.6277
93.8664
91.8528
89.5389
86.6474
83.3763
77.1072
)
;
    }
    empty-3
    {
        type            empty;
    }
    empty-4
    {
        type            empty;
    }
    wall-l2
    {
        type            calculated;
        value           nonuniform List<scalar> 
51
(
18.1285
18.1915
18.2417
18.3109
18.3795
18.4165
18.4461
18.4104
18.3395
18.2496
18.1372
18.0288
17.9151
17.8082
17.7048
17.592
17.4747
17.3477
17.2209
17.1012
16.9876
16.8819
16.7769
16.669
16.5578
16.4437
16.333
16.231
16.1368
16.05
15.9789
15.9165
15.8597
15.8088
15.7624
15.7199
15.6758
15.6271
15.5702
15.5086
15.4433
15.3762
15.3016
15.2173
15.1187
15.0097
14.8895
14.7653
14.6138
14.4777
14.1932
)
;
    }
    outlet-l
    {
        type            calculated;
        value           uniform 0;
    }
    empty-5
    {
        type            empty;
    }
    empty-6
    {
        type            empty;
    }
    outlet-h
    {
        type            calculated;
        value           uniform 0;
    }
    wall-h2
    {
        type            calculated;
        value           nonuniform List<scalar> 
51
(
18.3825
18.3216
18.2608
18.1995
18.1375
18.0747
18.0137
17.9569
17.9064
17.8626
17.8232
17.7873
17.7537
17.722
17.69
17.6528
17.604
17.539
17.4584
17.3689
17.28
17.1976
17.1203
17.0405
16.9504
16.8496
16.7475
16.678
16.6158
16.5523
16.4939
16.4394
16.3873
16.3373
16.2894
16.2447
16.2043
16.1696
16.1405
16.1166
16.0955
16.0742
16.0481
16.0136
15.9669
15.9068
15.8303
15.7413
15.6215
15.5087
15.2804
)
;
    }
    empty-7
    {
        type            empty;
    }
    empty-8
    {
        type            empty;
    }
    airfoil-h2
    {
        type            calculated;
        value           nonuniform List<scalar> 
104
(
136.059
138.393
140.225
141.557
142.531
143.238
143.726
144.042
144.227
144.317
144.309
144.208
144.038
143.815
143.547
143.251
142.927
142.597
142.242
141.881
141.511
141.128
140.737
140.342
139.941
139.527
139.118
138.702
138.278
137.855
137.426
136.99
136.553
136.127
135.694
135.253
134.805
134.354
133.909
133.457
133.011
132.558
132.105
131.648
131.193
130.736
130.274
129.811
129.348
128.88
128.42
127.945
127.472
127.002
126.525
126.046
125.57
125.088
124.598
124.114
123.618
123.13
122.628
122.126
121.619
121.109
120.593
120.066
119.537
119.005
118.458
117.915
117.358
116.793
116.217
115.627
115.033
114.419
113.797
113.156
112.495
111.822
111.128
110.406
109.663
108.899
108.1
107.268
106.397
105.483
104.521
103.501
102.416
101.265
100.027
98.6927
97.2363
95.6306
93.8402
91.8036
89.4771
86.5806
83.3101
77.0017
)
;
    }
    wall-h1
    {
        type            calculated;
        value           nonuniform List<scalar> 
104
(
16.246
16.4379
16.5579
16.6329
16.575
16.5549
16.5831
16.5866
16.5914
16.6
16.628
16.6468
16.6539
16.6789
16.7132
16.7694
16.8236
16.8606
16.8931
16.9204
16.9625
17.0347
17.1298
17.2424
17.353
17.4501
17.5341
17.606
17.6683
17.7169
17.7492
17.7687
17.789
17.8251
17.884
17.9594
18.035
18.0958
18.1381
18.1703
18.2074
18.2562
18.3168
18.3789
18.4358
18.4835
18.5267
18.5693
18.6097
18.6405
18.6505
18.6358
18.6016
18.5623
18.5364
18.5387
18.5724
18.6317
18.703
18.7739
18.8339
18.8813
18.9173
18.9449
18.9639
18.9716
18.9668
18.949
18.9205
18.889
18.8625
18.8477
18.848
18.863
18.8872
18.9126
18.929
18.9289
18.9081
18.8652
18.8036
18.7317
18.6607
18.6007
18.5616
18.5455
18.5493
18.5639
18.578
18.5849
18.5813
18.5718
18.5609
18.5549
18.5545
18.5602
18.5683
18.5762
18.58
18.5748
18.5582
18.5282
18.4871
18.4325
)
;
    }
    empty-9
    {
        type            empty;
    }
    empty-10
    {
        type            empty;
    }
    inlet-h
    {
        type            calculated;
        value           uniform 0;
    }
    airfoil-h1
    {
        type            calculated;
        value           nonuniform List<scalar> 
71
(
189.642
210.072
244.585
279.138
307.483
326.869
338.932
345.501
348.075
347.823
345.517
341.877
336.802
330.47
323.329
315.688
307.743
299.626
291.394
283.157
274.969
266.858
258.872
251.042
243.375
235.924
228.706
221.759
215.103
208.771
202.814
197.281
192.217
187.668
183.706
180.354
177.648
175.598
174.154
173.252
172.803
172.698
172.87
173.226
173.729
174.204
174.657
175.017
175.27
175.387
175.3
175.041
174.521
173.769
172.762
171.488
170.007
168.302
166.376
164.284
162.031
159.65
157.165
154.605
151.985
149.32
146.675
144.036
141.437
138.998
136.422
)
;
    }
    empty-11
    {
        type            empty;
    }
    empty-12
    {
        type            empty;
    }
}


// ************************************************************************* //
